10
* (null), Energy   -1000.0000000
O    -1.522076   -1.792290    0.147298   -0.436595    0.668587   -0.201813
O    -1.522076    1.792290    0.147296    0.436629    0.668615    0.201819
O     1.522077   -1.792289   -0.147298    0.436598    0.668595    0.201814
O     1.522077    1.792289   -0.147296   -0.436632    0.668622   -0.201820
Si   -0.000000   -1.278539   -0.000001    0.000000    0.063498   -0.000000
Si    0.000000    1.278539   -0.000000    0.000000    0.063469    0.000001
Mg   -2.182887   -0.000000   -0.350804   -0.000003   -0.703202   -0.000002
Mg    2.182887    0.000000    0.350806    0.000002   -0.703212    0.000002
O    -0.292291   -0.000000   -1.172724    0.000003   -0.380376   -0.000013
O     0.292290   -0.000000    1.172724   -0.000004   -0.380367    0.000012
10
* Frequency(20)  573.8109
O    -1.571693   -1.716308    0.124363   -0.436595    0.668587   -0.201813
O    -1.472455    1.868274    0.170231    0.436629    0.668615    0.201819
O     1.571694   -1.716306   -0.124363    0.436598    0.668595    0.201814
O     1.472456    1.868275   -0.170232   -0.436632    0.668622   -0.201820
Si   -0.000000   -1.271323   -0.000001    0.000000    0.063498   -0.000000
Si    0.000000    1.285752   -0.000000    0.000000    0.063469    0.000001
Mg   -2.182887   -0.079915   -0.350804   -0.000003   -0.703202   -0.000002
Mg    2.182887   -0.079916    0.350806    0.000002   -0.703212    0.000002
O    -0.292291   -0.043228   -1.172725    0.000003   -0.380376   -0.000013
O     0.292290   -0.043227    1.172725   -0.000004   -0.380367    0.000012
10
* Frequency(20)  573.8109
O    -1.615933   -1.648561    0.103913   -0.436595    0.668587   -0.201813
O    -1.428212    1.936025    0.190682    0.436629    0.668615    0.201819
O     1.615934   -1.648558   -0.103913    0.436598    0.668595    0.201814
O     1.428212    1.936026   -0.190682   -0.436632    0.668622   -0.201820
Si   -0.000000   -1.264889   -0.000001    0.000000    0.063498   -0.000000
Si    0.000000    1.292183    0.000000    0.000000    0.063469    0.000001
Mg   -2.182888   -0.151170   -0.350805   -0.000003   -0.703202   -0.000002
Mg    2.182888   -0.151173    0.350806    0.000002   -0.703212    0.000002
O    -0.292290   -0.081771   -1.172726    0.000003   -0.380376   -0.000013
O     0.292289   -0.081769    1.172726   -0.000004   -0.380367    0.000012
10
* Frequency(20)  573.8109
O    -1.650002   -1.596388    0.088165   -0.436595    0.668587   -0.201813
O    -1.394140    1.988199    0.206430    0.436629    0.668615    0.201819
O     1.650003   -1.596385   -0.088165    0.436598    0.668595    0.201814
O     1.394140    1.988201   -0.206431   -0.436632    0.668622   -0.201820
Si   -0.000000   -1.259934   -0.000001    0.000000    0.063498   -0.000000
Si    0.000000    1.297136    0.000000    0.000000    0.063469    0.000001
Mg   -2.182888   -0.206044   -0.350805   -0.000003   -0.703202   -0.000002
Mg    2.182888   -0.206047    0.350806    0.000002   -0.703212    0.000002
O    -0.292290   -0.111454   -1.172727    0.000003   -0.380376   -0.000013
O     0.292289   -0.111451    1.172727   -0.000004   -0.380367    0.000012
10
* Frequency(20)  573.8109
O    -1.670209   -1.565445    0.078825   -0.436595    0.668587   -0.201813
O    -1.373932    2.019144    0.215771    0.436629    0.668615    0.201819
O     1.670210   -1.565441   -0.078825    0.436598    0.668595    0.201814
O     1.373932    2.019146   -0.215772   -0.436632    0.668622   -0.201820
Si   -0.000000   -1.256995   -0.000001    0.000000    0.063498   -0.000000
Si    0.000000    1.300073    0.000000    0.000000    0.063469    0.000001
Mg   -2.182888   -0.238589   -0.350805   -0.000003   -0.703202   -0.000002
Mg    2.182888   -0.238593    0.350806    0.000002   -0.703212    0.000002
O    -0.292290   -0.129058   -1.172728    0.000003   -0.380376   -0.000013
O     0.292289   -0.129055    1.172728   -0.000004   -0.380367    0.000012
10
* Frequency(20)  573.8109
O    -1.674363   -1.559083    0.076905   -0.436595    0.668587   -0.201813
O    -1.369778    2.025506    0.217691    0.436629    0.668615    0.201819
O     1.674364   -1.559080   -0.076905    0.436598    0.668595    0.201814
O     1.369777    2.025508   -0.217692   -0.436632    0.668622   -0.201820
Si   -0.000000   -1.256391   -0.000001    0.000000    0.063498   -0.000000
Si    0.000000    1.300677    0.000000    0.000000    0.063469    0.000001
Mg   -2.182888   -0.245280   -0.350805   -0.000003   -0.703202   -0.000002
Mg    2.182888   -0.245284    0.350806    0.000002   -0.703212    0.000002
O    -0.292290   -0.132677   -1.172728    0.000003   -0.380376   -0.000013
O     0.292289   -0.132674    1.172728   -0.000004   -0.380367    0.000012
10
* Frequency(20)  573.8109
O    -1.662014   -1.577994    0.082613   -0.436595    0.668587   -0.201813
O    -1.382127    2.006595    0.211983    0.436629    0.668615    0.201819
O     1.662015   -1.577990   -0.082613    0.436598    0.668595    0.201814
O     1.382127    2.006596   -0.211984   -0.436632    0.668622   -0.201820
Si   -0.000000   -1.258187   -0.000001    0.000000    0.063498   -0.000000
Si    0.000000    1.298882    0.000000    0.000000    0.063469    0.000001
Mg   -2.182888   -0.225391   -0.350805   -0.000003   -0.703202   -0.000002
Mg    2.182888   -0.225394    0.350806    0.000002   -0.703212    0.000002
O    -0.292290   -0.121919   -1.172728    0.000003   -0.380376   -0.000013
O     0.292289   -0.121916    1.172728   -0.000004   -0.380367    0.000012
10
* Frequency(20)  573.8109
O    -1.634501   -1.620126    0.095330   -0.436595    0.668587   -0.201813
O    -1.409642    1.964460    0.199265    0.436629    0.668615    0.201819
O     1.634502   -1.620123   -0.095330    0.436598    0.668595    0.201814
O     1.409642    1.964462   -0.199265   -0.436632    0.668622   -0.201820
Si   -0.000000   -1.262188   -0.000001    0.000000    0.063498   -0.000000
Si    0.000000    1.294883    0.000000    0.000000    0.063469    0.000001
Mg   -2.182888   -0.181077   -0.350805   -0.000003   -0.703202   -0.000002
Mg    2.182888   -0.181079    0.350806    0.000002   -0.703212    0.000002
O    -0.292290   -0.097948   -1.172727    0.000003   -0.380376   -0.000013
O     0.292289   -0.097946    1.172727   -0.000004   -0.380367    0.000012
10
* Frequency(20)  573.8109
O    -1.594805   -1.680915    0.113680   -0.436595    0.668587   -0.201813
O    -1.449341    1.903669    0.180915    0.436629    0.668615    0.201819
O     1.594806   -1.680913   -0.113680    0.436598    0.668595    0.201814
O     1.449342    1.903669   -0.180916   -0.436632    0.668622   -0.201820
Si   -0.000000   -1.267962   -0.000001    0.000000    0.063498   -0.000000
Si    0.000000    1.289112   -0.000000    0.000000    0.063469    0.000001
Mg   -2.182888   -0.117140   -0.350805   -0.000003   -0.703202   -0.000002
Mg    2.182887   -0.117142    0.350806    0.000002   -0.703212    0.000002
O    -0.292291   -0.063364   -1.172726    0.000003   -0.380376   -0.000013
O     0.292289   -0.063362    1.172726   -0.000004   -0.380367    0.000012
10
* Frequency(20)  573.8109
O    -1.547228   -1.753774    0.135672   -0.436595    0.668587   -0.201813
O    -1.496922    1.830807    0.158922    0.436629    0.668615    0.201819
O     1.547228   -1.753772   -0.135672    0.436598    0.668595    0.201814
O     1.496923    1.830807   -0.158923   -0.436632    0.668622   -0.201820
Si   -0.000000   -1.274881   -0.000001    0.000000    0.063498   -0.000000
Si    0.000000    1.282196   -0.000000    0.000000    0.063469    0.000001
Mg   -2.182887   -0.040510   -0.350804   -0.000003   -0.703202   -0.000002
Mg    2.182887   -0.040511    0.350806    0.000002   -0.703212    0.000002
O    -0.292291   -0.021913   -1.172724    0.000003   -0.380376   -0.000013
O     0.292290   -0.021912    1.172724   -0.000004   -0.380367    0.000012
10
* Frequency(20)  573.8109
O    -1.496925   -1.830806    0.158924   -0.436595    0.668587   -0.201813
O    -1.547229    1.753772    0.135669    0.436629    0.668615    0.201819
O     1.496925   -1.830805   -0.158924    0.436598    0.668595    0.201814
O     1.547230    1.753771   -0.135670   -0.436632    0.668622   -0.201820
Si   -0.000000   -1.282197   -0.000001    0.000000    0.063498   -0.000000
Si    0.000000    1.274883   -0.000000    0.000000    0.063469    0.000001
Mg   -2.182887    0.040510   -0.350804   -0.000003   -0.703202   -0.000002
Mg    2.182887    0.040511    0.350806    0.000002   -0.703212    0.000002
O    -0.292291    0.021912   -1.172723    0.000003   -0.380376   -0.000013
O     0.292290    0.021912    1.172723   -0.000004   -0.380367    0.000012
10
* Frequency(20)  573.8109
O    -1.449348   -1.903664    0.180916   -0.436595    0.668587   -0.201813
O    -1.594810    1.680911    0.113676    0.436629    0.668615    0.201819
O     1.449347   -1.903664   -0.180916    0.436598    0.668595    0.201814
O     1.594811    1.680909   -0.113677   -0.436632    0.668622   -0.201820
Si   -0.000000   -1.289117   -0.000000    0.000000    0.063498   -0.000000
Si    0.000000    1.267966   -0.000000    0.000000    0.063469    0.000001
Mg   -2.182887    0.117140   -0.350804   -0.000003   -0.703202   -0.000002
Mg    2.182887    0.117142    0.350805    0.000002   -0.703212    0.000002
O    -0.292292    0.063363   -1.172722    0.000003   -0.380376   -0.000013
O     0.292291    0.063362    1.172722   -0.000004   -0.380367    0.000012
10
* Frequency(20)  573.8109
O    -1.409652   -1.964453    0.199265   -0.436595    0.668587   -0.201813
O    -1.634509    1.620119    0.095327    0.436629    0.668615    0.201819
O     1.409651   -1.964454   -0.199266    0.436598    0.668595    0.201814
O     1.634511    1.620117   -0.095327   -0.436632    0.668622   -0.201820
Si   -0.000000   -1.294890   -0.000000    0.000000    0.063498   -0.000000
Si    0.000000    1.262196   -0.000000    0.000000    0.063469    0.000001
Mg   -2.182886    0.181077   -0.350804   -0.000003   -0.703202   -0.000002
Mg    2.182887    0.181080    0.350805    0.000002   -0.703212    0.000002
O    -0.292292    0.097948   -1.172721    0.000003   -0.380376   -0.000013
O     0.292291    0.097946    1.172720   -0.000004   -0.380367    0.000012
10
* Frequency(20)  573.8109
O    -1.382139   -2.006586    0.211983   -0.436595    0.668587   -0.201813
O    -1.662024    1.577985    0.082609    0.436629    0.668615    0.201819
O     1.382138   -2.006587   -0.211983    0.436598    0.668595    0.201814
O     1.662026    1.577982   -0.082609   -0.436632    0.668622   -0.201820
Si   -0.000000   -1.298892   -0.000000    0.000000    0.063498   -0.000000
Si    0.000000    1.258196   -0.000000    0.000000    0.063469    0.000001
Mg   -2.182886    0.225391   -0.350804   -0.000003   -0.703202   -0.000002
Mg    2.182886    0.225394    0.350805    0.000002   -0.703212    0.000002
O    -0.292292    0.121918   -1.172720    0.000003   -0.380376   -0.000013
O     0.292291    0.121915    1.172720   -0.000004   -0.380367    0.000012
10
* Frequency(20)  573.8109
O    -1.369790   -2.025496    0.217691   -0.436595    0.668587   -0.201813
O    -1.674374    1.559074    0.076900    0.436629    0.668615    0.201819
O     1.369789   -2.025498   -0.217692    0.436598    0.668595    0.201814
O     1.674376    1.559071   -0.076900   -0.436632    0.668622   -0.201820
Si   -0.000000   -1.300688   -0.000000    0.000000    0.063498   -0.000000
Si    0.000000    1.256401   -0.000000    0.000000    0.063469    0.000001
Mg   -2.182886    0.245280   -0.350804   -0.000003   -0.703202   -0.000002
Mg    2.182886    0.245284    0.350805    0.000002   -0.703212    0.000002
O    -0.292292    0.132676   -1.172719    0.000003   -0.380376   -0.000013
O     0.292291    0.132674    1.172719   -0.000004   -0.380367    0.000012
10
* Frequency(20)  573.8109
O    -1.373944   -2.019135    0.215771   -0.436595    0.668587   -0.201813
O    -1.670220    1.565435    0.078821    0.436629    0.668615    0.201819
O     1.373943   -2.019136   -0.215771    0.436598    0.668595    0.201814
O     1.670222    1.565432   -0.078821   -0.436632    0.668622   -0.201820
Si   -0.000000   -1.300084   -0.000000    0.000000    0.063498   -0.000000
Si    0.000000    1.257005   -0.000000    0.000000    0.063469    0.000001
Mg   -2.182886    0.238589   -0.350804   -0.000003   -0.703202   -0.000002
Mg    2.182886    0.238593    0.350805    0.000002   -0.703212    0.000002
O    -0.292292    0.129057   -1.172720    0.000003   -0.380376   -0.000013
O     0.292291    0.129055    1.172719   -0.000004   -0.380367    0.000012
10
* Frequency(20)  573.8109
O    -1.394150   -1.988191    0.206431   -0.436595    0.668587   -0.201813
O    -1.650012    1.596380    0.088161    0.436629    0.668615    0.201819
O     1.394150   -1.988193   -0.206431    0.436598    0.668595    0.201814
O     1.650013    1.596377   -0.088161   -0.436632    0.668622   -0.201820
Si   -0.000000   -1.297145   -0.000000    0.000000    0.063498   -0.000000
Si    0.000000    1.259942   -0.000000    0.000000    0.063469    0.000001
Mg   -2.182886    0.206044   -0.350804   -0.000003   -0.703202   -0.000002
Mg    2.182886    0.206047    0.350805    0.000002   -0.703212    0.000002
O    -0.292292    0.111453   -1.172720    0.000003   -0.380376   -0.000013
O     0.292291    0.111450    1.172720   -0.000004   -0.380367    0.000012
10
* Frequency(20)  573.8109
O    -1.428220   -1.936019    0.190683   -0.436595    0.668587   -0.201813
O    -1.615940    1.648555    0.103910    0.436629    0.668615    0.201819
O     1.428219   -1.936020   -0.190683    0.436598    0.668595    0.201814
O     1.615941    1.648553   -0.103910   -0.436632    0.668622   -0.201820
Si   -0.000000   -1.292190   -0.000000    0.000000    0.063498   -0.000000
Si    0.000000    1.264895   -0.000000    0.000000    0.063469    0.000001
Mg   -2.182887    0.151170   -0.350804   -0.000003   -0.703202   -0.000002
Mg    2.182887    0.151173    0.350805    0.000002   -0.703212    0.000002
O    -0.292292    0.081771   -1.172721    0.000003   -0.380376   -0.000013
O     0.292291    0.081769    1.172721   -0.000004   -0.380367    0.000012
10
* Frequency(20)  573.8109
O    -1.472460   -1.868271    0.170233   -0.436595    0.668587   -0.201813
O    -1.571696    1.716305    0.124360    0.436629    0.668615    0.201819
O     1.472459   -1.868271   -0.170233    0.436598    0.668595    0.201814
O     1.571698    1.716304   -0.124360   -0.436632    0.668622   -0.201820
Si   -0.000000   -1.285756   -0.000000    0.000000    0.063498   -0.000000
Si    0.000000    1.271326   -0.000000    0.000000    0.063469    0.000001
Mg   -2.182887    0.079915   -0.350804   -0.000003   -0.703202   -0.000002
Mg    2.182887    0.079917    0.350805    0.000002   -0.703212    0.000002
O    -0.292292    0.043227   -1.172722    0.000003   -0.380376   -0.000013
O     0.292290    0.043227    1.172722   -0.000004   -0.380367    0.000012
10
* Frequency(20)  573.8109
O    -1.522076   -1.792290    0.147298   -0.436595    0.668587   -0.201813
O    -1.522076    1.792290    0.147296    0.436629    0.668615    0.201819
O     1.522077   -1.792289   -0.147298    0.436598    0.668595    0.201814
O     1.522077    1.792289   -0.147296   -0.436632    0.668622   -0.201820
Si   -0.000000   -1.278539   -0.000001    0.000000    0.063498   -0.000000
Si    0.000000    1.278539   -0.000000    0.000000    0.063469    0.000001
Mg   -2.182887   -0.000000   -0.350804   -0.000003   -0.703202   -0.000002
Mg    2.182887    0.000000    0.350806    0.000002   -0.703212    0.000002
O    -0.292291   -0.000000   -1.172724    0.000003   -0.380376   -0.000013
O     0.292290   -0.000000    1.172724   -0.000004   -0.380367    0.000012
