
                                        *****************
                                        * O   R   C   A *
                                        *****************

                                            #,                                       
                                            ###                                      
                                            ####                                     
                                            #####                                    
                                            ######                                   
                                           ########,                                 
                                     ,,################,,,,,                         
                               ,,#################################,,                 
                          ,,##########################################,,             
                       ,#########################################, ''#####,          
                    ,#############################################,,   '####,        
                  ,##################################################,,,,####,       
                ,###########''''           ''''###############################       
              ,#####''   ,,,,##########,,,,          '''####'''          '####       
            ,##' ,,,,###########################,,,                        '##       
           ' ,,###''''                  '''############,,,                           
         ,,##''                                '''############,,,,        ,,,,,,###''
      ,#''                                            '''#######################'''  
     '                                                          ''''####''''         
             ,#######,   #######,   ,#######,      ##                                
            ,#'     '#,  ##    ##  ,#'     '#,    #''#        ######   ,####,        
            ##       ##  ##   ,#'  ##            #'  '#       #        #'  '#        
            ##       ##  #######   ##           ,######,      #####,   #    #        
            '#,     ,#'  ##    ##  '#,     ,#' ,#      #,         ##   #,  ,#        
             '#######'   ##     ##  '#######'  #'      '#     #####' # '####'        



                  #######################################################
                  #                        -***-                        #
                  #          Department of theory and spectroscopy      #
                  #    Directorship and core code : Frank Neese         #
                  #        Max Planck Institute fuer Kohlenforschung    #
                  #                Kaiser Wilhelm Platz 1               #
                  #                 D-45470 Muelheim/Ruhr               #
                  #                      Germany                        #
                  #                                                     #
                  #                  All rights reserved                #
                  #                        -***-                        #
                  #######################################################


                         Program Version 5.0.0 -  RELEASE  -
                                (SVN: $Rev: 19529$)
                ($Date: 2021-06-28 11:36:33 +0200 (Mo, 28 Jun 2021) $)


 With contributions from (in alphabetic order):
   Daniel Aravena         : Magnetic Suceptibility
   Michael Atanasov       : Ab Initio Ligand Field Theory (pilot matlab implementation)
   Alexander A. Auer      : GIAO ZORA, VPT2 properties, NMR spectrum
   Ute Becker             : Parallelization
   Giovanni Bistoni       : ED, misc. LED, open-shell LED, HFLD
   Martin Brehm           : Molecular dynamics
   Dmytro Bykov           : SCF Hessian
   Vijay G. Chilkuri      : MRCI spin determinant printing, contributions to CSF-ICE
   Dipayan Datta          : RHF DLPNO-CCSD density
   Achintya Kumar Dutta   : EOM-CC, STEOM-CC
   Dmitry Ganyushin       : Spin-Orbit,Spin-Spin,Magnetic field MRCI
   Miquel Garcia          : C-PCM Hessian, Gaussian charge scheme
   Yang Guo               : DLPNO-NEVPT2, F12-NEVPT2, CIM, IAO-localization
   Andreas Hansen         : Spin unrestricted coupled pair/coupled cluster methods
   Benjamin Helmich-Paris : MC-RPA, TRAH-SCF, COSX integrals
   Lee Huntington         : MR-EOM, pCC
   Robert Izsak           : Overlap fitted RIJCOSX, COSX-SCS-MP3, EOM
   Marcus Kettner         : VPT2
   Christian Kollmar      : KDIIS, OOCD, Brueckner-CCSD(T), CCSD density, CASPT2, CASPT2-K
   Simone Kossmann        : Meta GGA functionals, TD-DFT gradient, OOMP2, MP2 Hessian
   Martin Krupicka        : Initial AUTO-CI
   Lucas Lang             : DCDCAS
   Marvin Lechner         : AUTO-CI (C++ implementation), FIC-MRCC
   Dagmar Lenk            : GEPOL surface, SMD
   Dimitrios Liakos       : Extrapolation schemes; Compound Job, initial MDCI parallelization
   Dimitrios Manganas     : Further ROCIS development; embedding schemes
   Dimitrios Pantazis     : SARC Basis sets
   Anastasios Papadopoulos: AUTO-CI, single reference methods and gradients
   Taras Petrenko         : DFT Hessian,TD-DFT gradient, ASA, ECA, R-Raman, ABS, FL, XAS/XES, NRVS
   Peter Pinski           : DLPNO-MP2, DLPNO-MP2 Gradient
   Christoph Reimann      : Effective Core Potentials
   Marius Retegan         : Local ZFS, SOC
   Christoph Riplinger    : Optimizer, TS searches, QM/MM, DLPNO-CCSD(T), (RO)-DLPNO pert. Triples
   Tobias Risthaus        : Range-separated hybrids, TD-DFT gradient, RPA, STAB
   Michael Roemelt        : Original ROCIS implementation
   Masaaki Saitow         : Open-shell DLPNO-CCSD energy and density
   Barbara Sandhoefer     : DKH picture change effects
   Avijit Sen             : IP-ROCIS
   Kantharuban Sivalingam : CASSCF convergence, NEVPT2, FIC-MRCI
   Bernardo de Souza      : ESD, SOC TD-DFT
   Georgi Stoychev        : AutoAux, RI-MP2 NMR
   Willem Van den Heuvel  : Paramagnetic NMR
   Boris Wezisla          : Elementary symmetry handling
   Frank Wennmohs         : Technical directorship


 We gratefully acknowledge several colleagues who have allowed us to
 interface, adapt or use parts of their codes:
   Stefan Grimme, W. Hujo, H. Kruse, P. Pracht,  : VdW corrections, initial TS optimization,
                  C. Bannwarth, S. Ehlert          DFT functionals, gCP, sTDA/sTD-DF
   Ed Valeev, F. Pavosevic, A. Kumar             : LibInt (2-el integral package), F12 methods
   Garnet Chan, S. Sharma, J. Yang, R. Olivares  : DMRG
   Ulf Ekstrom                                   : XCFun DFT Library
   Mihaly Kallay                                 : mrcc  (arbitrary order and MRCC methods)
   Jiri Pittner, Ondrej Demel                    : Mk-CCSD
   Frank Weinhold                                : gennbo (NPA and NBO analysis)
   Christopher J. Cramer and Donald G. Truhlar   : smd solvation model
   Lars Goerigk                                  : TD-DFT with DH, B97 family of functionals
   V. Asgeirsson, H. Jonsson                     : NEB implementation
   FAccTs GmbH                                   : IRC, NEB, NEB-TS, DLPNO-Multilevel, CI-OPT
                                                   MM, QMMM, 2- and 3-layer-ONIOM, Crystal-QMMM,
                                                   LR-CPCM, SF, NACMEs, symmetry and pop. for TD-DFT,
                                                   nearIR, NL-DFT gradient (VV10), updates on ESD,
                                                   ML-optimized integration grids
   S Lehtola, MJT Oliveira, MAL Marques          : LibXC Library
   Liviu Ungur et al                             : ANISO software


 Your calculation uses the libint2 library for the computation of 2-el integrals
 For citations please refer to: http://libint.valeyev.net

 Your ORCA version has been built with support for libXC version: 5.1.0
 For citations please refer to: https://tddft.org/programs/libxc/

 This ORCA versions uses:
   CBLAS   interface :  Fast vector & matrix operations
   LAPACKE interface :  Fast linear algebra routines
   SCALAPACK package :  Parallel linear algebra routines
   Shared memory     :  Shared parallel matrices
   BLAS/LAPACK       :  OpenBLAS 0.3.15  USE64BITINT DYNAMIC_ARCH NO_AFFINITY Sandybridge SINGLE_THREADED
        Core in use  :  Sandybridge
   Copyright (c) 2011-2014, The OpenBLAS Project


================================================================================

----- Orbital basis set information -----
Your calculation utilizes the basis: def2-SVP
   F. Weigend and R. Ahlrichs, Phys. Chem. Chem. Phys. 7, 3297 (2005).

----- AuxJ basis set information -----
Your calculation utilizes the auxiliary basis: def2/J
   F. Weigend, Phys. Chem. Chem. Phys. 8, 1057 (2006).

================================================================================
                                        WARNINGS
                       Please study these warnings very carefully!
================================================================================


WARNING: Geometry Optimization
  ===> : Switching off AutoStart
         For restart on a previous wavefunction, please use MOREAD

INFO   : the flag for use of the SHARK integral package has been found!

================================================================================
                                       INPUT FILE
================================================================================
NAME = orca.inp
|  1> ! RIJCOSX PBE0 def2-SVP def2/J TightOpt Freq 
|  2> %scf maxiter 600 end 
|  3> %maxcore 1000 
|  4> %pal nprocs 20 end 
|  5> *xyz 0 1 
|  6> O -1.507982 -1.792352 0.146175
|  7> O -1.507982 1.792352 0.146175
|  8> O 1.507982 -1.792352 -0.146175
|  9> O 1.507982 1.792352 -0.146175
| 10> Si -0.0 -1.263748 0.0
| 11> Si -0.0 1.263748 0.0
| 12> Mg -2.175375 -0.0 -0.347485
| 13> Mg 2.175375 0.0 0.347485
| 14> O -0.287856 -0.0 -1.173206
| 15> O 0.287856 0.0 1.173206
| 16> *
| 17> 
| 18>                          ****END OF INPUT****
================================================================================

                       *****************************
                       * Geometry Optimization Run *
                       *****************************

Geometry optimization settings:
Update method            Update   .... BFGS
Choice of coordinates    CoordSys .... Z-matrix Internals
Initial Hessian          InHess   .... Almoef's Model

Convergence Tolerances:
Energy Change            TolE     ....  1.0000e-06 Eh
Max. Gradient            TolMAXG  ....  1.0000e-04 Eh/bohr
RMS Gradient             TolRMSG  ....  3.0000e-05 Eh/bohr
Max. Displacement        TolMAXD  ....  1.0000e-03 bohr
RMS Displacement         TolRMSD  ....  6.0000e-04 bohr
Strict Convergence                ....  False
------------------------------------------------------------------------------
                        ORCA OPTIMIZATION COORDINATE SETUP
------------------------------------------------------------------------------

The optimization will be done in new redundant internal coordinates
Making redundant internal coordinates   ...  (new redundants) done
Evaluating the initial hessian          ...  (Almloef) done
Evaluating the coordinates              ...  done
Calculating the B-matrix                .... done
Calculating the G-matrix                .... done
Diagonalizing the G-matrix              .... done
The first mode is                       ....  267
The number of degrees of freedom        ....   24

    -----------------------------------------------------------------
                    Redundant Internal Coordinates


    -----------------------------------------------------------------
         Definition                    Initial Value    Approx d2E/dq
    -----------------------------------------------------------------
      1. B(Si  4,O   2)                  1.6046         1.105708   
      2. B(Si  4,O   0)                  1.6046         1.105708   
      3. B(Si  5,O   3)                  1.6046         1.105708   
      4. B(Si  5,Si  4)                  2.5275         0.180836   
      5. B(Si  5,O   1)                  1.6046         1.105708   
      6. B(Mg  6,O   1)                  1.9753         0.659569   
      7. B(Mg  6,O   0)                  1.9753         0.659569   
      8. B(Mg  6,Si  5)                  2.5397         0.402503   
      9. B(Mg  6,Si  4)                  2.5397         0.402503   
     10. B(Mg  7,Si  5)                  2.5397         0.402503   
     11. B(Mg  7,Si  4)                  2.5397         0.402503   
     12. B(Mg  7,O   3)                  1.9753         0.659569   
     13. B(Mg  7,O   2)                  1.9753         0.659569   
     14. B(O   8,Si  5)                  1.7482         0.652388   
     15. B(O   8,Si  4)                  1.7482         0.652388   
     16. B(O   8,Mg  6)                  2.0602         0.482717   
     17. B(O   9,Mg  7)                  2.0602         0.482717   
     18. B(O   9,Si  5)                  1.7482         0.652388   
     19. B(O   9,Si  4)                  1.7482         0.652388   
     20. A(Si  4,O   0,Mg  6)           89.7616         0.590350   
     21. A(Si  5,O   1,Mg  6)           89.7616         0.590350   
     22. A(Si  4,O   2,Mg  7)           89.7616         0.590350   
     23. A(Si  5,O   3,Mg  7)           89.7616         0.590350   
     24. A(O   0,Si  4,Mg  7)          163.0231         0.573163   
     25. A(O   2,Si  4,Si  5)          109.2340         0.477367   
     26. A(Mg  6,Si  4,Mg  7)          120.3176         0.525312   
     27. A(O   0,Si  4,Mg  6)           51.0547         0.573163   
     28. A(Mg  6,Si  4,O   9)           82.7127         0.518665   
     29. A(O   0,Si  4,O   9)          109.3743         0.565788   
     30. A(Si  5,Si  4,Mg  7)           60.1588         0.438983   
     31. A(O   2,Si  4,Mg  7)           51.0547         0.573163   
     32. A(O   8,Si  4,O   9)           87.4161         0.512120   
     33. A(Mg  7,Si  4,O   9)           53.6617         0.518665   
     34. A(Mg  7,Si  4,O   8)           82.7127         0.518665   
     35. A(Si  5,Si  4,O   8)           43.7081         0.433651   
     36. A(O   2,Si  4,O   9)           98.3099         0.565788   
     37. A(Mg  6,Si  4,O   8)           53.6617         0.518665   
     38. A(Si  5,Si  4,O   9)           43.7081         0.433651   
     39. A(O   0,Si  4,O   8)           98.3099         0.565788   
     40. A(O   2,Si  4,Mg  6)          163.0231         0.573163   
     41. A(O   2,Si  4,O   8)          109.3743         0.565788   
     42. A(O   0,Si  4,O   2)          141.5320         0.626263   
     43. A(O   0,Si  4,Si  5)          109.2340         0.477367   
     44. A(Si  5,Si  4,Mg  6)           60.1588         0.438983   
     45. A(O   1,Si  5,Mg  7)          163.0231         0.573163   
     46. A(O   1,Si  5,Mg  6)           51.0547         0.573163   
     47. A(O   3,Si  5,Si  4)          109.2340         0.477367   
     48. A(O   1,Si  5,Si  4)          109.2340         0.477367   
     49. A(O   3,Si  5,Mg  7)           51.0547         0.573163   
     50. A(Si  4,Si  5,O   8)           43.7081         0.433651   
     51. A(Si  4,Si  5,O   9)           43.7081         0.433651   
     52. A(O   3,Si  5,O   8)          109.3743         0.565788   
     53. A(O   1,Si  5,O   8)           98.3099         0.565788   
     54. A(O   3,Si  5,O   9)           98.3099         0.565788   
     55. A(O   1,Si  5,O   9)          109.3743         0.565788   
     56. A(Mg  7,Si  5,O   9)           53.6617         0.518665   
     57. A(Mg  6,Si  5,O   9)           82.7127         0.518665   
     58. A(O   3,Si  5,Mg  6)          163.0231         0.573163   
     59. A(Si  4,Si  5,Mg  6)           60.1588         0.438983   
     60. A(Mg  6,Si  5,Mg  7)          120.3176         0.525312   
     61. A(Si  4,Si  5,Mg  7)           60.1588         0.438983   
     62. A(O   1,Si  5,O   3)          141.5320         0.626263   
     63. A(Mg  6,Si  5,O   8)           53.6617         0.518665   
     64. A(Mg  7,Si  5,O   8)           82.7127         0.518665   
     65. A(O   8,Si  5,O   9)           87.4161         0.512120   
     66. A(O   1,Mg  6,Si  4)           97.3493         0.540800   
     67. A(O   0,Mg  6,Si  4)           39.1837         0.540800   
     68. A(Si  5,Mg  6,O   8)           43.1214         0.509980   
     69. A(Si  4,Mg  6,O   8)           43.1214         0.509980   
     70. A(O   1,Mg  6,O   8)           77.9136         0.524924   
     71. A(O   0,Mg  6,O   8)           77.9136         0.524924   
     72. A(Si  4,Mg  6,Si  5)           59.6824         0.525312   
     73. A(O   1,Mg  6,Si  5)           39.1837         0.540800   
     74. A(O   0,Mg  6,Si  5)           97.3493         0.540800   
     75. A(O   0,Mg  6,O   1)          130.2975         0.556838   
     76. A(O   3,Mg  7,Si  4)           97.3493         0.540800   
     77. A(O   2,Mg  7,Si  4)           39.1837         0.540800   
     78. A(O   2,Mg  7,O   3)          130.2975         0.556838   
     79. A(O   3,Mg  7,Si  5)           39.1837         0.540800   
     80. A(Si  4,Mg  7,Si  5)           59.6824         0.525312   
     81. A(Si  5,Mg  7,O   9)           43.1214         0.509980   
     82. A(Si  4,Mg  7,O   9)           43.1214         0.509980   
     83. A(O   3,Mg  7,O   9)           77.9136         0.524924   
     84. A(O   2,Mg  7,Si  5)           97.3493         0.540800   
     85. A(O   2,Mg  7,O   9)           77.9136         0.524924   
     86. A(Si  5,O   8,Mg  6)           83.2169         0.503567   
     87. A(Si  4,O   8,Mg  6)           83.2169         0.503567   
     88. A(Si  4,O   8,Si  5)           92.5839         0.512120   
     89. A(Si  5,O   9,Mg  7)           83.2169         0.503567   
     90. A(Si  4,O   9,Mg  7)           83.2169         0.503567   
     91. A(Si  4,O   9,Si  5)           92.5839         0.512120   
     92. D(Mg  7,Si  4,O   0,Mg  6)     64.8827         0.019182   
     93. D(O   8,Si  4,O   2,Mg  7)     62.8005         0.019182   
     94. D(O   0,Si  4,O   2,Mg  7)   -163.6588         0.019182   
     95. D(O   2,Si  4,O   0,Mg  6)   -163.6588         0.019182   
     96. D(O   9,Si  4,O   0,Mg  6)     62.8005         0.019182   
     97. D(Mg  6,Si  4,O   2,Mg  7)     64.8827         0.019182   
     98. D(O   9,Si  4,O   2,Mg  7)    -27.3753         0.019182   
     99. D(O   8,Si  4,O   0,Mg  6)    -27.3753         0.019182   
    100. D(Si  5,Si  4,O   2,Mg  7)     16.3412         0.019182   
    101. D(Si  5,Si  4,O   0,Mg  6)     16.3412         0.019182   
    102. D(O   3,Si  5,Si  4,Mg  6)   -165.3879         0.001615   
    103. D(O   9,Si  5,Si  4,O   8)    180.0000         0.001615   
    104. D(O   3,Si  5,Si  4,O   2)      0.0000         0.001615   
    105. D(O   9,Si  5,O   1,Mg  6)    -62.8005         0.019182   
    106. D(O   8,Si  5,Si  4,Mg  6)    -67.1388         0.001615   
    107. D(O   1,Si  5,Si  4,Mg  7)   -165.3879         0.001615   
    108. D(O   3,Si  5,Si  4,O   8)    -98.2491         0.001615   
    109. D(O   1,Si  5,Si  4,O   2)    180.0000         0.001615   
    110. D(Mg  7,Si  5,Si  4,O   0)    165.3879         0.001615   
    111. D(Mg  6,Si  5,O   3,Mg  7)    -64.8827         0.019182   
    112. D(O   1,Si  5,Si  4,O   0)      0.0000         0.001615   
    113. D(Mg  6,Si  5,Si  4,O   0)    -14.6121         0.001615   
    114. D(O   9,Si  5,O   3,Mg  7)     27.3753         0.019182   
    115. D(O   1,Si  5,Si  4,O   8)     81.7509         0.001615   
    116. D(O   1,Si  5,O   3,Mg  7)    163.6588         0.019182   
    117. D(O   3,Si  5,Si  4,O   0)    180.0000         0.001615   
    118. D(O   8,Si  5,O   1,Mg  6)     27.3753         0.019182   
    119. D(O   3,Si  5,Si  4,Mg  7)     14.6121         0.001615   
    120. D(O   8,Si  5,Si  4,O   2)     98.2491         0.001615   
    121. D(O   1,Si  5,Si  4,O   9)    -98.2491         0.001615   
    122. D(Mg  7,Si  5,Si  4,Mg  6)    180.0000         0.001615   
    123. D(Mg  6,Si  5,Si  4,O   9)   -112.8612         0.001615   
    124. D(Mg  7,Si  5,Si  4,O   8)   -112.8612         0.001615   
    125. D(Si  4,Si  5,O   1,Mg  6)    -16.3412         0.019182   
    126. D(O   9,Si  5,Si  4,Mg  6)    112.8612         0.001615   
    127. D(O   1,Si  5,Si  4,Mg  6)     14.6121         0.001615   
    128. D(O   8,Si  5,Si  4,O   0)    -81.7509         0.001615   
    129. D(Mg  7,Si  5,Si  4,O   2)    -14.6121         0.001615   
    130. D(Mg  6,Si  5,Si  4,Mg  7)    180.0000         0.001615   
    131. D(O   8,Si  5,Si  4,Mg  7)    112.8612         0.001615   
    132. D(O   8,Si  5,Si  4,O   9)    180.0000         0.001615   
    133. D(Mg  7,Si  5,Si  4,O   9)     67.1388         0.001615   
    134. D(O   3,Si  5,Si  4,O   9)     81.7509         0.001615   
    135. D(Mg  6,Si  5,Si  4,O   8)     67.1388         0.001615   
    136. D(O   9,Si  5,Si  4,O   2)    -81.7509         0.001615   
    137. D(O   9,Si  5,Si  4,O   0)     98.2491         0.001615   
    138. D(O   8,Si  5,O   3,Mg  7)    -62.8005         0.019182   
    139. D(Mg  6,Si  5,Si  4,O   2)    165.3879         0.001615   
    140. D(O   3,Si  5,O   1,Mg  6)    163.6588         0.019182   
    141. D(O   9,Si  5,Si  4,Mg  7)    -67.1388         0.001615   
    142. D(Mg  7,Si  5,O   1,Mg  6)    -64.8827         0.019182   
    143. D(Si  4,Si  5,O   3,Mg  7)    -16.3412         0.019182   
    144. D(O   0,Mg  6,Si  4,Si  5)   -162.1660         0.001730   
    145. D(Si  5,Mg  6,O   0,Si  4)    -15.4600         0.003485   
    146. D(Si  4,Mg  6,O   1,Si  5)     15.4600         0.003485   
    147. D(O   0,Mg  6,O   1,Si  5)     39.2059         0.003485   
    148. D(O   8,Mg  6,O   0,Si  4)     23.2560         0.003485   
    149. D(O   0,Mg  6,Si  4,Mg  7)   -162.1660         0.001730   
    150. D(O   0,Mg  6,Si  4,O   2)    143.1707         0.001730   
    151. D(O   0,Mg  6,Si  4,O   9)   -122.2330         0.001730   
    152. D(O   1,Mg  6,O   0,Si  4)    -39.2059         0.003485   
    153. D(O   0,Mg  6,Si  4,O   8)    145.6095         0.001730   
    154. D(O   8,Mg  6,Si  5,O   9)    -92.1575         0.001730   
    155. D(O   8,Mg  6,Si  5,Mg  7)    -52.2245         0.001730   
    156. D(O   8,Mg  6,Si  5,O   3)      2.4387         0.001730   
    157. D(O   8,Mg  6,Si  5,O   1)    145.6095         0.001730   
    158. D(O   8,Mg  6,O   1,Si  5)    -23.2560         0.003485   
    159. D(Si  4,Mg  6,Si  5,O   8)     52.2245         0.001730   
    160. D(Si  4,Mg  6,Si  5,Mg  7)      0.0000         0.001730   
    161. D(Si  4,Mg  6,Si  5,O   3)     54.6632         0.001730   
    162. D(O   8,Mg  6,Si  5,Si  4)    -52.2245         0.001730   
    163. D(O   1,Mg  6,Si  5,O   8)   -145.6095         0.001730   
    164. D(O   1,Mg  6,Si  5,Mg  7)    162.1660         0.001730   
    165. D(O   1,Mg  6,Si  5,Si  4)    162.1660         0.001730   
    166. D(O   0,Mg  6,Si  5,O   8)     63.4751         0.001730   
    167. D(O   0,Mg  6,Si  5,O   3)     65.9139         0.001730   
    168. D(O   0,Mg  6,Si  5,O   1)   -150.9154         0.001730   
    169. D(O   0,Mg  6,Si  5,O   9)    -28.6824         0.001730   
    170. D(O   8,Mg  6,Si  4,O   9)     92.1575         0.001730   
    171. D(O   8,Mg  6,Si  4,Mg  7)     52.2245         0.001730   
    172. D(O   1,Mg  6,Si  5,O   3)   -143.1707         0.001730   
    173. D(O   8,Mg  6,Si  4,Si  5)     52.2245         0.001730   
    174. D(O   8,Mg  6,Si  4,O   2)     -2.4387         0.001730   
    175. D(O   0,Mg  6,Si  5,Mg  7)     11.2506         0.001730   
    176. D(O   8,Mg  6,Si  4,O   0)   -145.6095         0.001730   
    177. D(Si  5,Mg  6,Si  4,O   9)     39.9330         0.001730   
    178. D(Si  5,Mg  6,Si  4,Mg  7)      0.0000         0.001730   
    179. D(Si  5,Mg  6,Si  4,O   0)    162.1660         0.001730   
    180. D(O   1,Mg  6,Si  5,O   9)    122.2330         0.001730   
    181. D(Si  4,Mg  6,Si  5,O   1)   -162.1660         0.001730   
    182. D(O   1,Mg  6,Si  4,O   9)     28.6824         0.001730   
    183. D(Si  5,Mg  6,Si  4,O   2)    -54.6632         0.001730   
    184. D(Si  4,Mg  6,Si  5,O   9)    -39.9330         0.001730   
    185. D(O   1,Mg  6,Si  4,O   8)    -63.4751         0.001730   
    186. D(O   1,Mg  6,Si  4,Mg  7)    -11.2506         0.001730   
    187. D(O   1,Mg  6,Si  4,Si  5)    -11.2506         0.001730   
    188. D(Si  5,Mg  6,Si  4,O   8)    -52.2245         0.001730   
    189. D(O   1,Mg  6,Si  4,O   2)    -65.9139         0.001730   
    190. D(O   0,Mg  6,Si  5,Si  4)     11.2506         0.001730   
    191. D(O   1,Mg  6,Si  4,O   0)    150.9154         0.001730   
    192. D(O   9,Mg  7,Si  4,Mg  6)     52.2245         0.001730   
    193. D(O   9,Mg  7,Si  4,Si  5)     52.2245         0.001730   
    194. D(O   9,Mg  7,Si  4,O   2)   -145.6095         0.001730   
    195. D(Si  5,Mg  7,Si  4,O   9)    -52.2245         0.001730   
    196. D(Si  5,Mg  7,Si  4,O   8)     39.9330         0.001730   
    197. D(Si  5,Mg  7,Si  4,Mg  6)      0.0000         0.001730   
    198. D(Si  5,Mg  7,Si  4,O   0)    -54.6632         0.001730   
    199. D(O   3,Mg  7,Si  4,O   9)    -63.4751         0.001730   
    200. D(O   3,Mg  7,Si  4,O   8)     28.6824         0.001730   
    201. D(O   3,Mg  7,Si  4,Mg  6)    -11.2506         0.001730   
    202. D(O   3,Mg  7,Si  4,Si  5)    -11.2506         0.001730   
    203. D(O   3,Mg  7,Si  4,O   2)    150.9154         0.001730   
    204. D(O   3,Mg  7,Si  4,O   0)    -65.9139         0.001730   
    205. D(O   2,Mg  7,Si  4,O   9)    145.6095         0.001730   
    206. D(O   2,Mg  7,Si  4,O   8)   -122.2330         0.001730   
    207. D(O   2,Mg  7,Si  4,Mg  6)   -162.1660         0.001730   
    208. D(O   2,Mg  7,Si  4,Si  5)   -162.1660         0.001730   
    209. D(Si  5,Mg  7,Si  4,O   2)    162.1660         0.001730   
    210. D(O   2,Mg  7,Si  4,O   0)    143.1707         0.001730   
    211. D(O   9,Mg  7,O   3,Si  5)    -23.2560         0.003485   
    212. D(Si  4,Mg  7,O   3,Si  5)     15.4600         0.003485   
    213. D(O   9,Mg  7,Si  4,O   0)     -2.4387         0.001730   
    214. D(O   2,Mg  7,O   3,Si  5)     39.2059         0.003485   
    215. D(O   9,Mg  7,O   2,Si  4)     23.2560         0.003485   
    216. D(Si  5,Mg  7,O   2,Si  4)    -15.4600         0.003485   
    217. D(O   9,Mg  7,Si  4,O   8)     92.1575         0.001730   
    218. D(O   3,Mg  7,O   2,Si  4)    -39.2059         0.003485   
    219. D(O   9,Mg  7,Si  5,O   8)    -92.1575         0.001730   
    220. D(O   9,Mg  7,Si  5,Mg  6)    -52.2245         0.001730   
    221. D(O   9,Mg  7,Si  5,Si  4)    -52.2245         0.001730   
    222. D(O   9,Mg  7,Si  5,O   3)    145.6095         0.001730   
    223. D(O   9,Mg  7,Si  5,O   1)      2.4387         0.001730   
    224. D(Si  4,Mg  7,Si  5,O   8)    -39.9330         0.001730   
    225. D(Si  4,Mg  7,Si  5,Mg  6)      0.0000         0.001730   
    226. D(Si  4,Mg  7,Si  5,O   3)   -162.1660         0.001730   
    227. D(Si  4,Mg  7,Si  5,O   1)     54.6632         0.001730   
    228. D(O   3,Mg  7,Si  5,O   9)   -145.6095         0.001730   
    229. D(O   3,Mg  7,Si  5,O   8)    122.2330         0.001730   
    230. D(O   3,Mg  7,Si  5,Mg  6)    162.1660         0.001730   
    231. D(O   3,Mg  7,Si  5,Si  4)    162.1660         0.001730   
    232. D(O   3,Mg  7,Si  5,O   1)   -143.1707         0.001730   
    233. D(Si  4,Mg  7,Si  5,O   9)     52.2245         0.001730   
    234. D(O   2,Mg  7,Si  5,O   9)     63.4751         0.001730   
    235. D(O   2,Mg  7,Si  5,O   8)    -28.6824         0.001730   
    236. D(O   2,Mg  7,Si  5,Mg  6)     11.2506         0.001730   
    237. D(O   2,Mg  7,Si  5,Si  4)     11.2506         0.001730   
    238. D(O   2,Mg  7,Si  5,O   3)   -150.9154         0.001730   
    239. D(O   2,Mg  7,Si  5,O   1)     65.9139         0.001730   
    240. D(Si  5,O   8,Mg  6,Si  4)    -93.4322         0.002645   
    241. D(Si  5,O   8,Mg  6,O   1)     21.4048         0.002645   
    242. D(Si  5,O   8,Mg  6,O   0)   -114.8370         0.002645   
    243. D(Si  4,O   8,Mg  6,O   1)    114.8370         0.002645   
    244. D(Si  4,O   8,Mg  6,O   0)    -21.4048         0.002645   
    245. D(Mg  6,O   8,Si  5,O   9)     82.8521         0.007648   
    246. D(Mg  6,O   8,Si  5,Si  4)     82.8521         0.007648   
    247. D(Mg  6,O   8,Si  5,O   3)   -179.2454         0.007648   
    248. D(Mg  6,O   8,Si  5,O   1)    -26.3565         0.007648   
    249. D(Si  4,O   8,Si  5,O   9)      0.0000         0.007648   
    250. D(Si  4,O   8,Si  5,Mg  7)     53.6857         0.007648   
    251. D(Si  4,O   8,Si  5,Mg  6)    -82.8521         0.007648   
    252. D(Si  4,O   8,Si  5,O   3)     97.9026         0.007648   
    253. D(Si  4,O   8,Si  5,O   1)   -109.2086         0.007648   
    254. D(Mg  6,O   8,Si  4,O   9)    -82.8521         0.007648   
    255. D(Mg  6,O   8,Si  4,Mg  7)   -136.5378         0.007648   
    256. D(Mg  6,O   8,Si  4,Si  5)    -82.8521         0.007648   
    257. D(Mg  6,O   8,Si  5,Mg  7)    136.5378         0.007648   
    258. D(Mg  6,O   8,Si  4,O   2)    179.2454         0.007648   
    259. D(Mg  6,O   8,Si  4,O   0)     26.3565         0.007648   
    260. D(Si  5,O   8,Si  4,O   9)      0.0000         0.007648   
    261. D(Si  4,O   8,Mg  6,Si  5)     93.4322         0.002645   
    262. D(Si  5,O   8,Si  4,Mg  7)    -53.6857         0.007648   
    263. D(Si  5,O   8,Si  4,Mg  6)     82.8521         0.007648   
    264. D(Si  5,O   8,Si  4,O   2)    -97.9026         0.007648   
    265. D(Si  5,O   8,Si  4,O   0)    109.2086         0.007648   
    266. D(Si  5,O   9,Mg  7,Si  4)    -93.4322         0.002645   
    267. D(Si  5,O   9,Mg  7,O   2)   -114.8370         0.002645   
    268. D(Si  4,O   9,Mg  7,Si  5)     93.4322         0.002645   
    269. D(Si  4,O   9,Mg  7,O   3)    114.8370         0.002645   
    270. D(Si  4,O   9,Mg  7,O   2)    -21.4048         0.002645   
    271. D(Mg  7,O   9,Si  5,O   8)     82.8521         0.007648   
    272. D(Mg  7,O   9,Si  5,Mg  6)    136.5378         0.007648   
    273. D(Mg  7,O   9,Si  5,Si  4)     82.8521         0.007648   
    274. D(Mg  7,O   9,Si  5,O   1)   -179.2454         0.007648   
    275. D(Si  4,O   9,Si  5,O   8)      0.0000         0.007648   
    276. D(Si  4,O   9,Si  5,Mg  7)    -82.8521         0.007648   
    277. D(Si  4,O   9,Si  5,Mg  6)     53.6857         0.007648   
    278. D(Si  4,O   9,Si  5,O   3)   -109.2086         0.007648   
    279. D(Si  4,O   9,Si  5,O   1)     97.9026         0.007648   
    280. D(Mg  7,O   9,Si  4,O   8)    -82.8521         0.007648   
    281. D(Mg  7,O   9,Si  5,O   3)    -26.3565         0.007648   
    282. D(Mg  7,O   9,Si  4,Mg  6)   -136.5378         0.007648   
    283. D(Mg  7,O   9,Si  4,Si  5)    -82.8521         0.007648   
    284. D(Mg  7,O   9,Si  4,O   2)     26.3565         0.007648   
    285. D(Mg  7,O   9,Si  4,O   0)    179.2454         0.007648   
    286. D(Si  5,O   9,Si  4,O   8)      0.0000         0.007648   
    287. D(Si  5,O   9,Si  4,Mg  7)     82.8521         0.007648   
    288. D(Si  5,O   9,Si  4,Mg  6)    -53.6857         0.007648   
    289. D(Si  5,O   9,Mg  7,O   3)     21.4048         0.002645   
    290. D(Si  5,O   9,Si  4,O   2)    109.2086         0.007648   
    291. D(Si  5,O   9,Si  4,O   0)    -97.9026         0.007648   
    -----------------------------------------------------------------

Number of atoms                         .... 10
Number of degrees of freedom            .... 291

         *************************************************************
         *                GEOMETRY OPTIMIZATION CYCLE   1            *
         *************************************************************
---------------------------------
CARTESIAN COORDINATES (ANGSTROEM)
---------------------------------
  O     -1.507982   -1.792352    0.146175
  O     -1.507982    1.792352    0.146175
  O      1.507982   -1.792352   -0.146175
  O      1.507982    1.792352   -0.146175
  Si    -0.000000   -1.263748    0.000000
  Si    -0.000000    1.263748    0.000000
  Mg    -2.175375   -0.000000   -0.347485
  Mg     2.175375    0.000000    0.347485
  O     -0.287856   -0.000000   -1.173206
  O      0.287856    0.000000    1.173206

----------------------------
CARTESIAN COORDINATES (A.U.)
----------------------------
  NO LB      ZA    FRAG     MASS         X           Y           Z
   0 O     8.0000    0    15.999   -2.849673   -3.387054    0.276231
   1 O     8.0000    0    15.999   -2.849673    3.387054    0.276231
   2 O     8.0000    0    15.999    2.849673   -3.387054   -0.276231
   3 O     8.0000    0    15.999    2.849673    3.387054   -0.276231
   4 Si   14.0000    0    28.086   -0.000000   -2.388138    0.000000
   5 Si   14.0000    0    28.086   -0.000000    2.388138    0.000000
   6 Mg   12.0000    0    24.305   -4.110863   -0.000000   -0.656651
   7 Mg   12.0000    0    24.305    4.110863    0.000000    0.656651
   8 O     8.0000    0    15.999   -0.543969   -0.000000   -2.217038
   9 O     8.0000    0    15.999    0.543969    0.000000    2.217038

--------------------------------
INTERNAL COORDINATES (ANGSTROEM)
--------------------------------
 O      0   0   0     0.000000000000     0.00000000     0.00000000
 O      1   0   0     3.584704000000     0.00000000     0.00000000
 O      1   2   0     3.030100224711    90.00000000     0.00000000
 O      2   1   3     3.030100224711    90.00000000     0.00000000
 Si     1   2   3     1.604618032980    70.76601867     0.00000000
 Si     2   1   3     1.604618032980    70.76601867     0.00000000
 Mg     1   2   3     1.975256769120    24.85123561   222.02636608
 Mg     3   1   2     1.975256769120   108.19109913    17.22691271
 O      5   1   2     1.748236941229    98.30987402   316.28348081
 O      5   1   2     1.748236941229   109.37433508    46.45921580

---------------------------
INTERNAL COORDINATES (A.U.)
---------------------------
 O      0   0   0     0.000000000000     0.00000000     0.00000000
 O      1   0   0     6.774108831172     0.00000000     0.00000000
 O      1   2   0     5.726059583038    90.00000000     0.00000000
 O      2   1   3     5.726059583038    90.00000000     0.00000000
 Si     1   2   3     3.032288631884    70.76601867     0.00000000
 Si     2   1   3     3.032288631884    70.76601867     0.00000000
 Mg     1   2   3     3.732694337810    24.85123561   222.02636608
 Mg     3   1   2     3.732694337810   108.19109913    17.22691271
 O      5   1   2     3.303689036126    98.30987402   316.28348081
 O      5   1   2     3.303689036126   109.37433508    46.45921580

---------------------
BASIS SET INFORMATION
---------------------
There are 3 groups of distinct atoms

 Group   1 Type O   : 7s4p1d contracted to 3s2p1d pattern {511/31/1}
 Group   2 Type Si  : 10s7p1d contracted to 4s3p1d pattern {5311/511/1}
 Group   3 Type Mg  : 10s7p1d contracted to 4s3p1d pattern {5311/511/1}

Atom   0O    basis set group =>   1
Atom   1O    basis set group =>   1
Atom   2O    basis set group =>   1
Atom   3O    basis set group =>   1
Atom   4Si   basis set group =>   2
Atom   5Si   basis set group =>   2
Atom   6Mg   basis set group =>   3
Atom   7Mg   basis set group =>   3
Atom   8O    basis set group =>   1
Atom   9O    basis set group =>   1
---------------------------------
AUXILIARY/J BASIS SET INFORMATION
---------------------------------
There are 3 groups of distinct atoms

 Group   1 Type O   : 12s5p4d2f1g contracted to 6s4p3d1f1g pattern {711111/2111/211/2/1}
 Group   2 Type Si  : 14s5p5d2f1g contracted to 8s4p3d1f1g pattern {71111111/2111/311/2/1}
 Group   3 Type Mg  : 14s5p5d2f1g contracted to 8s4p4d1f1g pattern {71111111/2111/2111/2/1}

Atom   0O    basis set group =>   1
Atom   1O    basis set group =>   1
Atom   2O    basis set group =>   1
Atom   3O    basis set group =>   1
Atom   4Si   basis set group =>   2
Atom   5Si   basis set group =>   2
Atom   6Mg   basis set group =>   3
Atom   7Mg   basis set group =>   3
Atom   8O    basis set group =>   1
Atom   9O    basis set group =>   1


           ************************************************************
           *        Program running with 20 parallel MPI-processes    *
           *              working on a common directory               *
           ************************************************************
------------------------------------------------------------------------------
                           ORCA GTO INTEGRAL CALCULATION
                           -- RI-GTO INTEGRALS CHOSEN --
------------------------------------------------------------------------------
------------------------------------------------------------------------------
                   ___                                                        
                  /   \      - P O W E R E D   B Y -                         
                 /     \                                                     
                 |  |  |   _    _      __       _____    __    __             
                 |  |  |  | |  | |    /  \     |  _  \  |  |  /  |          
                  \  \/   | |  | |   /    \    | | | |  |  | /  /          
                 / \  \   | |__| |  /  /\  \   | |_| |  |  |/  /          
                |  |  |   |  __  | /  /__\  \  |    /   |      \           
                |  |  |   | |  | | |   __   |  |    \   |  |\   \          
                \     /   | |  | | |  |  |  |  | |\  \  |  | \   \       
                 \___/    |_|  |_| |__|  |__|  |_| \__\ |__|  \__/        
                                                                              
                      - O R C A' S   B I G   F R I E N D -                    
                                      &                                       
                       - I N T E G R A L  F E E D E R -                       
                                                                              
 v1 FN, 2020, v2 2021                                                         
------------------------------------------------------------------------------


Reading SHARK input file orca.SHARKINP.tmp ... ok
----------------------
SHARK INTEGRAL PACKAGE
----------------------

Number of atoms                             ...     10
Number of basis functions                   ...    156
Number of shells                            ...     68
Maximum angular momentum                    ...      2
Integral batch strategy                     ... SHARK/LIBINT Hybrid
RI-J (if used) integral strategy            ... SPLIT-RIJ (Revised 2003 algorithm where possible)
Printlevel                                  ...      1
Contraction scheme used                     ... SEGMENTED contraction
Coulomb Range Separation                    ... NOT USED
Exchange Range Separation                   ... NOT USED
Finite Nucleus Model                        ... NOT USED
Auxiliary Coulomb fitting basis             ... AVAILABLE
   # of basis functions in Aux-J            ...    508
   # of shells in Aux-J                     ...    160
   Maximum angular momentum in Aux-J        ...      4
Auxiliary J/K fitting basis                 ... NOT available
Auxiliary Correlation fitting basis         ... NOT available
Auxiliary 'external' fitting basis          ... NOT available
Integral threshold                          ...     2.500000e-11
Primitive cut-off                           ...     2.500000e-12
Primitive pair pre-selection threshold      ...     2.500000e-12

Calculating pre-screening integrals         ... done (  0.1 sec) Dimension = 68
Organizing shell pair data                  ... done (  0.0 sec)
Shell pair information
Total number of shell pairs                 ...      2346
Shell pairs after pre-screening             ...      2180
Total number of primitive shell pairs       ...     10610
Primitive shell pairs kept                  ...      6590
          la=0 lb=0:    515 shell pairs
          la=1 lb=0:    768 shell pairs
          la=1 lb=1:    298 shell pairs
          la=2 lb=0:    310 shell pairs
          la=2 lb=1:    236 shell pairs
          la=2 lb=2:     53 shell pairs

Calculating one electron integrals          ... done (  0.0 sec)
Calculating RI/J V-Matrix + Cholesky decomp.... done (  0.0 sec)
Calculating Nuclear repulsion               ... done (  0.0 sec) ENN=    960.600796996607 Eh

SHARK setup successfully completed in   0.2 seconds

Maximum memory used throughout the entire GTOINT-calculation: 8.9 MB


           ************************************************************
           *        Program running with 20 parallel MPI-processes    *
           *              working on a common directory               *
           ************************************************************
-------------------------------------------------------------------------------
                                 ORCA SCF
-------------------------------------------------------------------------------

------------
SCF SETTINGS
------------
Hamiltonian:
 Density Functional     Method          .... DFT(GTOs)
 Exchange Functional    Exchange        .... PBE
   PBE kappa parameter   XKappa         ....  0.804000
   PBE mue parameter    XMuePBE         ....  0.219520
 Correlation Functional Correlation     .... PBE
   PBE beta parameter  CBetaPBE         ....  0.066725
 LDA part of GGA corr.  LDAOpt          .... PW91-LDA
 Gradients option       PostSCFGGA      .... off
 Hybrid DFT is turned on
   Fraction HF Exchange ScalHFX         ....  0.250000
   Scaling of DF-GGA-X  ScalDFX         ....  0.750000
   Scaling of DF-GGA-C  ScalDFC         ....  1.000000
   Scaling of DF-LDA-C  ScalLDAC        ....  1.000000
   Perturbative correction              ....  0.000000
   Density functional embedding theory  .... OFF
   NL short-range parameter             ....  6.900000
 RI-approximation to the Coulomb term is turned on
   Number of AuxJ basis functions       .... 508
   RIJ-COSX (HFX calculated with COS-X)).... on


General Settings:
 Integral files         IntName         .... orca
 Hartree-Fock type      HFTyp           .... RHF
 Total Charge           Charge          ....    0
 Multiplicity           Mult            ....    1
 Number of Electrons    NEL             ....  100
 Basis Dimension        Dim             ....  156
 Nuclear Repulsion      ENuc            ....    960.6007969966 Eh

Convergence Acceleration:
 DIIS                   CNVDIIS         .... on
   Start iteration      DIISMaxIt       ....    12
   Startup error        DIISStart       ....  0.200000
   # of expansion vecs  DIISMaxEq       ....     5
   Bias factor          DIISBfac        ....   1.050
   Max. coefficient     DIISMaxC        ....  10.000
 Trust-Rad. Augm. Hess. CNVTRAH         .... auto
   Auto Start mean grad. ratio tolernc. ....  1.125000
   Auto Start start iteration           ....    20
   Auto Start num. interpolation iter.  ....    10
   Max. Number of Micro iterations      ....    16
   Max. Number of Macro iterations      .... Maxiter - #DIIS iter
   Number of Davidson start vectors     ....     2
   Converg. threshold I  (grad. norm)   ....   1.000e-05
   Converg. threshold II (energy diff.) ....   1.000e-08
   Grad. Scal. Fac. for Micro threshold ....   0.100
   Minimum threshold for Micro iter.    ....   0.010
   NR start threshold (gradient norm)   ....   0.001
   Initial trust radius                 ....   0.400
   Minimum AH scaling param. (alpha)    ....   1.000
   Maximum AH scaling param. (alpha)    .... 1000.000
   Orbital update algorithm             .... Taylor
   White noise on init. David. guess    .... on
   Maximum white noise                  ....   0.010
   Quad. conv. algorithm                .... NR
 SOSCF                  CNVSOSCF        .... on
   Start iteration      SOSCFMaxIt      ....   150
   Startup grad/error   SOSCFStart      ....  0.003300
 Level Shifting         CNVShift        .... on
   Level shift para.    LevelShift      ....    0.2500
   Turn off err/grad.   ShiftErr        ....    0.0010
 Zerner damping         CNVZerner       .... off
 Static damping         CNVDamp         .... on
   Fraction old density DampFac         ....    0.7000
   Max. Damping (<1)    DampMax         ....    0.9800
   Min. Damping (>=0)   DampMin         ....    0.0000
   Turn off err/grad.   DampErr         ....    0.1000
 Fernandez-Rico         CNVRico         .... off

SCF Procedure:
 Maximum # iterations   MaxIter         ....   600
 SCF integral mode      SCFMode         .... Direct
   Integral package                     .... SHARK and LIBINT hybrid scheme
 Reset frequency        DirectResetFreq ....    20
 Integral Threshold     Thresh          ....  2.500e-11 Eh
 Primitive CutOff       TCut            ....  2.500e-12 Eh

Convergence Tolerance:
 Convergence Check Mode ConvCheckMode   .... Total+1el-Energy
 Convergence forced     ConvForced      .... 0
 Energy Change          TolE            ....  1.000e-08 Eh
 1-El. energy change                    ....  1.000e-05 Eh
 Orbital Gradient       TolG            ....  1.000e-05
 Orbital Rotation angle TolX            ....  1.000e-05
 DIIS Error             TolErr          ....  5.000e-07


Diagonalization of the overlap matrix:
Smallest eigenvalue                        ... 3.907e-03
Time for diagonalization                   ...    0.005 sec
Threshold for overlap eigenvalues          ... 1.000e-08
Number of eigenvalues below threshold      ... 0
Time for construction of square roots      ...    0.004 sec
Total time needed                          ...    0.009 sec

Time for model grid setup =    0.053 sec

------------------------------
INITIAL GUESS: MODEL POTENTIAL
------------------------------
Loading Hartree-Fock densities                     ... done
Calculating cut-offs                               ... done
Initializing the effective Hamiltonian             ... done
Setting up the integral package (SHARK)            ... done
Starting the Coulomb interaction                   ... done (   0.0 sec)
Reading the grid                                   ... done
Mapping shells                                     ... done
Starting the XC term evaluation                    ... done (   0.0 sec)
  promolecular density results
     # of electrons  =    100.001256401
     EX              =   -121.471417680
     EC              =     -3.587391877
     EX+EC           =   -125.058809558
Transforming the Hamiltonian                       ... done (   0.0 sec)
Diagonalizing the Hamiltonian                      ... done (   0.0 sec)
Back transforming the eigenvectors                 ... done (   0.0 sec)
Now organizing SCF variables                       ... done
                      ------------------
                      INITIAL GUESS DONE (   0.1 sec)
                      ------------------
-------------------
DFT GRID GENERATION
-------------------

General Integration Accuracy     IntAcc      ... 4.388
Radial Grid Type                 RadialGrid  ... OptM3 with GC (2021)
Angular Grid (max. ang.)         AngularGrid ... 4 (Lebedev-302)
Angular grid pruning method      GridPruning ... 4 (adaptive)
Weight generation scheme         WeightScheme... Becke
Basis function cutoff            BFCut       ... 1.0000e-11
Integration weight cutoff        WCut        ... 1.0000e-14
Angular grids for H and He will be reduced by one unit
Partially contracted basis set               ... off
Rotationally invariant grid construction     ... off

Total number of grid points                  ...    65126
Total number of batches                      ...     1024
Average number of points per batch           ...       63
Average number of grid points per atom       ...     6513
Time for grid setup =    0.364 sec

--------------------
COSX GRID GENERATION
--------------------

GRIDX 1
-------
General Integration Accuracy     IntAcc      ... 3.816
Radial Grid Type                 RadialGrid  ... OptM3 with GC (2021)
Angular Grid (max. ang.)         AngularGrid ... 1 (Lebedev-50)
Angular grid pruning method      GridPruning ... 4 (adaptive)
Weight generation scheme         WeightScheme... Becke
Basis function cutoff            BFCut       ... 1.0000e-11
Integration weight cutoff        WCut        ... 1.0000e-14
Angular grids for H and He will be reduced by one unit
Partially contracted basis set               ... on
Rotationally invariant grid construction     ... off

Total number of grid points                  ...     7904
Total number of batches                      ...      130
Average number of points per batch           ...       60
Average number of grid points per atom       ...      790
UseSFitting                                  ... on

GRIDX 2
-------
General Integration Accuracy     IntAcc      ... 4.020
Radial Grid Type                 RadialGrid  ... OptM3 with GC (2021)
Angular Grid (max. ang.)         AngularGrid ... 2 (Lebedev-110)
Angular grid pruning method      GridPruning ... 4 (adaptive)
Weight generation scheme         WeightScheme... Becke
Basis function cutoff            BFCut       ... 1.0000e-11
Integration weight cutoff        WCut        ... 1.0000e-14
Angular grids for H and He will be reduced by one unit
Partially contracted basis set               ... on
Rotationally invariant grid construction     ... off

Total number of grid points                  ...    18606
Total number of batches                      ...      296
Average number of points per batch           ...       62
Average number of grid points per atom       ...     1861
UseSFitting                                  ... on

GRIDX 3
-------
General Integration Accuracy     IntAcc      ... 4.338
Radial Grid Type                 RadialGrid  ... OptM3 with GC (2021)
Angular Grid (max. ang.)         AngularGrid ... 3 (Lebedev-194)
Angular grid pruning method      GridPruning ... 4 (adaptive)
Weight generation scheme         WeightScheme... Becke
Basis function cutoff            BFCut       ... 1.0000e-11
Integration weight cutoff        WCut        ... 1.0000e-14
Angular grids for H and He will be reduced by one unit
Partially contracted basis set               ... on
Rotationally invariant grid construction     ... off

Total number of grid points                  ...    43456
Total number of batches                      ...      684
Average number of points per batch           ...       63
Average number of grid points per atom       ...     4346
UseSFitting                                  ... on

Time for X-Grid setup             =    0.359 sec

--------------
SCF ITERATIONS
--------------
ITER       Energy         Delta-E        Max-DP      RMS-DP      [F,P]     Damp
               ***  Starting incremental Fock matrix formation  ***
  0  -1428.7054609629   0.000000000000 0.13345973  0.00439814  0.3477634 0.7000
  1  -1429.0275486686  -0.322087705785 0.10097768  0.00263596  0.1359269 0.7000
                               ***Turning on DIIS***
  2  -1429.1305995914  -0.103050922785 0.12308100  0.00318885  0.0423793 0.0000
  3  -1429.3126563723  -0.182056780904 0.06739337  0.00169543  0.0773628 0.0000
  4  -1429.3492137592  -0.036557386904 0.02074550  0.00054157  0.0271524 0.0000
  5  -1429.3515111698  -0.002297410612 0.00769761  0.00017576  0.0041445 0.0000
                      *** Initiating the SOSCF procedure ***
                           *** Shutting down DIIS ***
                      *** Re-Reading the Fockian *** 
                      *** Removing any level shift *** 
ITER      Energy       Delta-E        Grad      Rot      Max-DP    RMS-DP
  6  -1429.35168167  -0.0001705003  0.000716  0.000716  0.001271  0.000049
               *** Restarting incremental Fock matrix formation ***
  7  -1429.35211069  -0.0004290171  0.000396  0.001348  0.000955  0.000037
  8  -1429.35211430  -0.0000036103  0.000129  0.000281  0.000437  0.000015
  9  -1429.35211455  -0.0000002548  0.000101  0.000142  0.000181  0.000007
 10  -1429.35211484  -0.0000002894  0.000019  0.000030  0.000172  0.000003
 11  -1429.35211484   0.0000000030  0.000019  0.000021  0.000048  0.000001
 12  -1429.35211485  -0.0000000122  0.000008  0.000009  0.000047  0.000001
 13  -1429.35211486  -0.0000000128  0.000007  0.000005  0.000029  0.000001
                  ***Gradient check signals convergence***
              ***Rediagonalizing the Fockian in SOSCF/NRSCF***

               *****************************************************
               *                     SUCCESS                       *
               *           SCF CONVERGED AFTER  14 CYCLES          *
               *****************************************************

Old exchange energy                            =    -30.669573333 Eh
New exchange energy                            =    -30.669633225 Eh
Exchange energy change after final integration =     -0.000059892 Eh
Total energy after final integration           =  -1429.352174745 Eh
Final COS-X integration done in                =     0.514 sec

----------------
TOTAL SCF ENERGY
----------------

Total Energy       :        -1429.35217475 Eh          -38894.65004 eV

Components:
Nuclear Repulsion  :          960.60079700 Eh           26139.27658 eV
Electronic Energy  :        -2389.95297174 Eh          -65033.92662 eV
One Electron Energy:        -3901.84489795 Eh         -106174.59749 eV
Two Electron Energy:         1511.89192621 Eh           41140.67086 eV
Max COSX asymmetry :            0.00000899 Eh               0.00024 eV

Virial components:
Potential Energy   :        -2852.21132299 Eh          -77612.61585 eV
Kinetic Energy     :         1422.85914824 Eh           38717.96581 eV
Virial Ratio       :            2.00456337


DFT components:
N(Alpha)           :       49.999937396830 electrons
N(Beta)            :       49.999937396830 electrons
N(Total)           :       99.999874793661 electrons
E(X)               :      -91.748510639919 Eh       
E(C)               :       -3.631689093335 Eh       
E(XC)              :      -95.380199733255 Eh       
DFET-embed. en.    :        0.000000000000 Eh       

---------------
SCF CONVERGENCE
---------------

  Last Energy change         ...    1.0530e-08  Tolerance :   1.0000e-08
  Last MAX-Density change    ...    7.5495e-15  Tolerance :   1.0000e-07
  Last RMS-Density change    ...    1.1555e-16  Tolerance :   5.0000e-09
  Last Orbital Gradient      ...    1.6183e-07  Tolerance :   1.0000e-05
  Last Orbital Rotation      ...    3.0005e-07  Tolerance :   1.0000e-05

             **** THE GBW FILE WAS UPDATED (orca.gbw) ****
             **** DENSITY orca.scfp WAS UPDATED ****
             **** ENERGY FILE WAS UPDATED (orca.en.tmp) ****
             **** THE GBW FILE WAS UPDATED (orca.gbw) ****
             **** DENSITY orca.scfp WAS UPDATED ****
----------------
ORBITAL ENERGIES
----------------

  NO   OCC          E(Eh)            E(eV) 
   0   2.0000     -66.293324     -1803.9330 
   1   2.0000     -66.293213     -1803.9300 
   2   2.0000     -46.995119     -1278.8022 
   3   2.0000     -46.995111     -1278.8020 
   4   2.0000     -19.197885      -522.4010 
   5   2.0000     -19.197800      -522.3987 
   6   2.0000     -19.169550      -521.6300 
   7   2.0000     -19.169549      -521.6300 
   8   2.0000     -19.169479      -521.6280 
   9   2.0000     -19.169473      -521.6279 
  10   2.0000      -5.372910      -146.2043 
  11   2.0000      -5.372870      -146.2032 
  12   2.0000      -3.712897      -101.0331 
  13   2.0000      -3.712649      -101.0263 
  14   2.0000      -3.712601      -101.0250 
  15   2.0000      -3.712572      -101.0242 
  16   2.0000      -3.708059      -100.9014 
  17   2.0000      -3.708036      -100.9008 
  18   2.0000      -3.216806       -87.5337 
  19   2.0000      -3.216797       -87.5335 
  20   2.0000      -1.945033       -52.9270 
  21   2.0000      -1.945019       -52.9267 
  22   2.0000      -1.941531       -52.8317 
  23   2.0000      -1.941530       -52.8317 
  24   2.0000      -1.937566       -52.7239 
  25   2.0000      -1.937566       -52.7238 
  26   2.0000      -1.044259       -28.4157 
  27   2.0000      -0.961167       -26.1547 
  28   2.0000      -0.947291       -25.7771 
  29   2.0000      -0.926435       -25.2096 
  30   2.0000      -0.925943       -25.1962 
  31   2.0000      -0.924418       -25.1547 
  32   2.0000      -0.511790       -13.9265 
  33   2.0000      -0.484107       -13.1732 
  34   2.0000      -0.459470       -12.5028 
  35   2.0000      -0.452092       -12.3021 
  36   2.0000      -0.428160       -11.6508 
  37   2.0000      -0.395292       -10.7564 
  38   2.0000      -0.387957       -10.5569 
  39   2.0000      -0.374722       -10.1967 
  40   2.0000      -0.373672       -10.1681 
  41   2.0000      -0.337796        -9.1919 
  42   2.0000      -0.333347        -9.0708 
  43   2.0000      -0.325240        -8.8502 
  44   2.0000      -0.324008        -8.8167 
  45   2.0000      -0.313966        -8.5435 
  46   2.0000      -0.309183        -8.4133 
  47   2.0000      -0.291958        -7.9446 
  48   2.0000      -0.291078        -7.9206 
  49   2.0000      -0.283911        -7.7256 
  50   0.0000      -0.092630        -2.5206 
  51   0.0000      -0.079896        -2.1741 
  52   0.0000       0.022506         0.6124 
  53   0.0000       0.025206         0.6859 
  54   0.0000       0.039995         1.0883 
  55   0.0000       0.040944         1.1141 
  56   0.0000       0.071702         1.9511 
  57   0.0000       0.083520         2.2727 
  58   0.0000       0.090450         2.4613 
  59   0.0000       0.112059         3.0493 
  60   0.0000       0.114370         3.1122 
  61   0.0000       0.123132         3.3506 
  62   0.0000       0.127986         3.4827 
  63   0.0000       0.156626         4.2620 
  64   0.0000       0.195062         5.3079 
  65   0.0000       0.207820         5.6551 
  66   0.0000       0.211858         5.7649 
  67   0.0000       0.229445         6.2435 
  68   0.0000       0.242990         6.6121 
  69   0.0000       0.244314         6.6481 
  70   0.0000       0.246120         6.6973 
  71   0.0000       0.248310         6.7569 
  72   0.0000       0.256298         6.9742 
  73   0.0000       0.257810         7.0154 
  74   0.0000       0.273528         7.4431 
  75   0.0000       0.288092         7.8394 
  76   0.0000       0.314417         8.5557 
  77   0.0000       0.320552         8.7227 
  78   0.0000       0.320979         8.7343 
  79   0.0000       0.333122         9.0647 
  80   0.0000       0.348892         9.4938 
  81   0.0000       0.353862         9.6291 
  82   0.0000       0.415030        11.2935 
  83   0.0000       0.424495        11.5511 
  84   0.0000       0.473066        12.8728 
  85   0.0000       0.476435        12.9644 
  86   0.0000       0.478184        13.0121 
  87   0.0000       0.514393        13.9974 
  88   0.0000       0.519994        14.1498 
  89   0.0000       0.537056        14.6140 
  90   0.0000       0.565148        15.3785 
  91   0.0000       0.601917        16.3790 
  92   0.0000       0.612429        16.6650 
  93   0.0000       0.622529        16.9399 
  94   0.0000       0.698839        19.0164 
  95   0.0000       0.792691        21.5702 
  96   0.0000       0.818129        22.2624 
  97   0.0000       0.822795        22.3894 
  98   0.0000       0.874517        23.7968 
  99   0.0000       0.896313        24.3899 
 100   0.0000       0.920454        25.0468 
 101   0.0000       0.948229        25.8026 
 102   0.0000       1.063108        28.9286 
 103   0.0000       1.112702        30.2782 
 104   0.0000       1.116942        30.3935 
 105   0.0000       1.141983        31.0749 
 106   0.0000       1.160209        31.5709 
 107   0.0000       1.176228        32.0068 
 108   0.0000       1.186729        32.2925 
 109   0.0000       1.189229        32.3606 
 110   0.0000       1.220954        33.2239 
 111   0.0000       1.241644        33.7869 
 112   0.0000       1.265689        34.4412 
 113   0.0000       1.271796        34.6073 
 114   0.0000       1.286368        35.0038 
 115   0.0000       1.342243        36.5243 
 116   0.0000       1.358899        36.9775 
 117   0.0000       1.365039        37.1446 
 118   0.0000       1.388892        37.7937 
 119   0.0000       1.402225        38.1565 
 120   0.0000       1.430822        38.9346 
 121   0.0000       1.536140        41.8005 
 122   0.0000       1.560154        42.4540 
 123   0.0000       1.608322        43.7647 
 124   0.0000       1.661857        45.2214 
 125   0.0000       1.829717        49.7891 
 126   0.0000       2.607330        70.9491 
 127   0.0000       2.611086        71.0513 
 128   0.0000       2.614584        71.1464 
 129   0.0000       2.624608        71.4192 
 130   0.0000       2.657442        72.3127 
 131   0.0000       2.674900        72.7877 
 132   0.0000       2.674936        72.7887 
 133   0.0000       2.680949        72.9523 
 134   0.0000       2.695436        73.3465 
 135   0.0000       2.718550        73.9755 
 136   0.0000       2.719257        73.9947 
 137   0.0000       2.729712        74.2793 
 138   0.0000       2.739006        74.5321 
 139   0.0000       2.751840        74.8814 
 140   0.0000       2.758483        75.0621 
 141   0.0000       2.781095        75.6774 
 142   0.0000       2.791778        75.9681 
 143   0.0000       2.835261        77.1514 
 144   0.0000       2.905070        79.0510 
 145   0.0000       2.944168        80.1149 
 146   0.0000       2.968299        80.7715 
 147   0.0000       2.982163        81.1488 
 148   0.0000       2.988174        81.3124 
 149   0.0000       3.020802        82.2002 
 150   0.0000       3.036471        82.6266 
 151   0.0000       3.177301        86.4588 
 152   0.0000       3.281149        89.2846 
 153   0.0000       3.316480        90.2460 
 154   0.0000       3.327379        90.5426 
 155   0.0000       3.366309        91.6019 

                    ********************************
                    * MULLIKEN POPULATION ANALYSIS *
                    ********************************

-----------------------
MULLIKEN ATOMIC CHARGES
-----------------------
   0 O :   -0.642178
   1 O :   -0.642177
   2 O :   -0.642178
   3 O :   -0.642177
   4 Si:    1.261400
   5 Si:    1.261399
   6 Mg:    0.697655
   7 Mg:    0.697655
   8 O :   -0.674699
   9 O :   -0.674699
Sum of atomic charges:   -0.0000000

--------------------------------
MULLIKEN REDUCED ORBITAL CHARGES
--------------------------------
  0 O s       :     3.834446  s :     3.834446
      pz      :     1.716837  p :     4.800450
      px      :     1.410690
      py      :     1.672923
      dz2     :     0.001002  d :     0.007282
      dxz     :     0.001176
      dyz     :     0.000821
      dx2y2   :     0.002342
      dxy     :     0.001941
  1 O s       :     3.834445  s :     3.834445
      pz      :     1.716837  p :     4.800450
      px      :     1.410690
      py      :     1.672923
      dz2     :     0.001002  d :     0.007282
      dxz     :     0.001176
      dyz     :     0.000821
      dx2y2   :     0.002342
      dxy     :     0.001941
  2 O s       :     3.834446  s :     3.834446
      pz      :     1.716837  p :     4.800449
      px      :     1.410690
      py      :     1.672923
      dz2     :     0.001002  d :     0.007282
      dxz     :     0.001176
      dyz     :     0.000821
      dx2y2   :     0.002342
      dxy     :     0.001941
  3 O s       :     3.834445  s :     3.834445
      pz      :     1.716837  p :     4.800450
      px      :     1.410690
      py      :     1.672923
      dz2     :     0.001002  d :     0.007282
      dxz     :     0.001176
      dyz     :     0.000821
      dx2y2   :     0.002342
      dxy     :     0.001941
  4 Sis       :     4.697520  s :     4.697520
      pz      :     2.492317  p :     7.349420
      px      :     2.360081
      py      :     2.497021
      dz2     :     0.090727  d :     0.691660
      dxz     :     0.133446
      dyz     :     0.117081
      dx2y2   :     0.177751
      dxy     :     0.172654
  5 Sis       :     4.697520  s :     4.697520
      pz      :     2.492317  p :     7.349421
      px      :     2.360083
      py      :     2.497021
      dz2     :     0.090727  d :     0.691660
      dxz     :     0.133446
      dyz     :     0.117081
      dx2y2   :     0.177751
      dxy     :     0.172654
  6 Mgs       :     4.499865  s :     4.499865
      pz      :     2.156428  p :     6.557048
      px      :     2.142713
      py      :     2.257907
      dz2     :     0.028510  d :     0.245432
      dxz     :     0.035399
      dyz     :     0.080514
      dx2y2   :     0.065218
      dxy     :     0.035791
  7 Mgs       :     4.499865  s :     4.499865
      pz      :     2.156428  p :     6.557048
      px      :     2.142712
      py      :     2.257908
      dz2     :     0.028510  d :     0.245432
      dxz     :     0.035399
      dyz     :     0.080514
      dx2y2   :     0.065218
      dxy     :     0.035791
  8 O s       :     3.836933  s :     3.836933
      pz      :     1.639382  p :     4.829627
      px      :     1.691201
      py      :     1.499044
      dz2     :     0.002218  d :     0.008139
      dxz     :     0.001809
      dyz     :     0.003241
      dx2y2   :     0.000382
      dxy     :     0.000490
  9 O s       :     3.836933  s :     3.836933
      pz      :     1.639382  p :     4.829627
      px      :     1.691201
      py      :     1.499044
      dz2     :     0.002218  d :     0.008139
      dxz     :     0.001809
      dyz     :     0.003241
      dx2y2   :     0.000382
      dxy     :     0.000490


                     *******************************
                     * LOEWDIN POPULATION ANALYSIS *
                     *******************************

----------------------
LOEWDIN ATOMIC CHARGES
----------------------
   0 O :   -0.351479
   1 O :   -0.351479
   2 O :   -0.351479
   3 O :   -0.351479
   4 Si:    0.672052
   5 Si:    0.672052
   6 Mg:    0.310077
   7 Mg:    0.310077
   8 O :   -0.279171
   9 O :   -0.279171

-------------------------------
LOEWDIN REDUCED ORBITAL CHARGES
-------------------------------
  0 O s       :     3.517150  s :     3.517150
      pz      :     1.673589  p :     4.824693
      px      :     1.484357
      py      :     1.666747
      dz2     :     0.001489  d :     0.009635
      dxz     :     0.001222
      dyz     :     0.000773
      dx2y2   :     0.003386
      dxy     :     0.002765
  1 O s       :     3.517150  s :     3.517150
      pz      :     1.673589  p :     4.824693
      px      :     1.484358
      py      :     1.666747
      dz2     :     0.001489  d :     0.009635
      dxz     :     0.001222
      dyz     :     0.000773
      dx2y2   :     0.003386
      dxy     :     0.002765
  2 O s       :     3.517150  s :     3.517150
      pz      :     1.673589  p :     4.824693
      px      :     1.484357
      py      :     1.666747
      dz2     :     0.001489  d :     0.009635
      dxz     :     0.001222
      dyz     :     0.000773
      dx2y2   :     0.003386
      dxy     :     0.002765
  3 O s       :     3.517150  s :     3.517150
      pz      :     1.673588  p :     4.824693
      px      :     1.484358
      py      :     1.666747
      dz2     :     0.001489  d :     0.009635
      dxz     :     0.001222
      dyz     :     0.000773
      dx2y2   :     0.003386
      dxy     :     0.002765
  4 Sis       :     4.586228  s :     4.586228
      pz      :     2.527236  p :     7.718904
      px      :     2.637546
      py      :     2.554122
      dz2     :     0.136917  d :     1.022816
      dxz     :     0.177846
      dyz     :     0.212099
      dx2y2   :     0.254889
      dxy     :     0.241066
  5 Sis       :     4.586228  s :     4.586228
      pz      :     2.527236  p :     7.718904
      px      :     2.637546
      py      :     2.554122
      dz2     :     0.136917  d :     1.022816
      dxz     :     0.177846
      dyz     :     0.212099
      dx2y2   :     0.254889
      dxy     :     0.241066
  6 Mgs       :     4.311567  s :     4.311567
      pz      :     2.197449  p :     6.734108
      px      :     2.183105
      py      :     2.353554
      dz2     :     0.087512  d :     0.644248
      dxz     :     0.097615
      dyz     :     0.142897
      dx2y2   :     0.186601
      dxy     :     0.129624
  7 Mgs       :     4.311567  s :     4.311567
      pz      :     2.197449  p :     6.734108
      px      :     2.183105
      py      :     2.353554
      dz2     :     0.087512  d :     0.644248
      dxz     :     0.097615
      dyz     :     0.142897
      dx2y2   :     0.186601
      dxy     :     0.129624
  8 O s       :     3.486717  s :     3.486717
      pz      :     1.627359  p :     4.781406
      px      :     1.665056
      py      :     1.488991
      dz2     :     0.002453  d :     0.011049
      dxz     :     0.002041
      dyz     :     0.004923
      dx2y2   :     0.000841
      dxy     :     0.000791
  9 O s       :     3.486717  s :     3.486717
      pz      :     1.627359  p :     4.781406
      px      :     1.665056
      py      :     1.488991
      dz2     :     0.002453  d :     0.011049
      dxz     :     0.002041
      dyz     :     0.004923
      dx2y2   :     0.000841
      dxy     :     0.000791


                      *****************************
                      * MAYER POPULATION ANALYSIS *
                      *****************************

  NA   - Mulliken gross atomic population
  ZA   - Total nuclear charge
  QA   - Mulliken gross atomic charge
  VA   - Mayer's total valence
  BVA  - Mayer's bonded valence
  FA   - Mayer's free valence

  ATOM       NA         ZA         QA         VA         BVA        FA
  0 O      8.6422     8.0000    -0.6422     2.0590     2.0590    -0.0000
  1 O      8.6422     8.0000    -0.6422     2.0590     2.0590    -0.0000
  2 O      8.6422     8.0000    -0.6422     2.0590     2.0590    -0.0000
  3 O      8.6422     8.0000    -0.6422     2.0590     2.0590     0.0000
  4 Si    12.7386    14.0000     1.2614     4.0051     4.0051    -0.0000
  5 Si    12.7386    14.0000     1.2614     4.0051     4.0051    -0.0000
  6 Mg    11.3023    12.0000     0.6977     2.2308     2.2308    -0.0000
  7 Mg    11.3023    12.0000     0.6977     2.2308     2.2308    -0.0000
  8 O      8.6747     8.0000    -0.6747     1.9625     1.9625    -0.0000
  9 O      8.6747     8.0000    -0.6747     1.9625     1.9625    -0.0000

  Mayer bond orders larger than 0.100000
B(  0-O ,  4-Si) :   1.2353 B(  0-O ,  6-Mg) :   0.7777 B(  1-O ,  5-Si) :   1.2353 
B(  1-O ,  6-Mg) :   0.7777 B(  2-O ,  4-Si) :   1.2353 B(  2-O ,  7-Mg) :   0.7777 
B(  3-O ,  5-Si) :   1.2353 B(  3-O ,  7-Mg) :   0.7777 B(  4-Si,  8-O ) :   0.6864 
B(  4-Si,  9-O ) :   0.6864 B(  5-Si,  8-O ) :   0.6864 B(  5-Si,  9-O ) :   0.6864 
B(  6-Mg,  8-O ) :   0.4446 B(  7-Mg,  9-O ) :   0.4446 

-------
TIMINGS
-------

Total SCF time: 0 days 0 hours 0 min 5 sec 

Total time                  ....       5.666 sec
Sum of individual times     ....       5.508 sec  ( 97.2%)

Fock matrix formation       ....       4.539 sec  ( 80.1%)
  Split-RI-J                ....       0.683 sec  ( 15.1% of F)
  Chain of spheres X        ....       3.145 sec  ( 69.3% of F)
  XC integration            ....       0.666 sec  ( 14.7% of F)
    Basis function eval.    ....       0.219 sec  ( 32.8% of XC)
    Density eval.           ....       0.145 sec  ( 21.8% of XC)
    XC-Functional eval.     ....       0.054 sec  (  8.1% of XC)
    XC-Potential eval.      ....       0.122 sec  ( 18.2% of XC)
Diagonalization             ....       0.068 sec  (  1.2%)
Density matrix formation    ....       0.006 sec  (  0.1%)
Population analysis         ....       0.008 sec  (  0.1%)
Initial guess               ....       0.035 sec  (  0.6%)
Orbital Transformation      ....       0.000 sec  (  0.0%)
Orbital Orthonormalization  ....       0.000 sec  (  0.0%)
DIIS solution               ....       0.032 sec  (  0.6%)
SOSCF solution              ....       0.043 sec  (  0.8%)
Grid generation             ....       0.777 sec  ( 13.7%)

Maximum memory used throughout the entire SCF-calculation: 51.1 MB

-------------------------   --------------------
FINAL SINGLE POINT ENERGY     -1429.352174745068
-------------------------   --------------------



           ************************************************************
           *        Program running with 20 parallel MPI-processes    *
           *              working on a common directory               *
           ************************************************************
------------------------------------------------------------------------------
                         ORCA SCF GRADIENT CALCULATION
------------------------------------------------------------------------------

 ... reading COSX grid (gridx3)
Gradient of the Kohn-Sham DFT energy:
Kohn-Sham wavefunction type      ... RKS
Hartree-Fock exchange scaling    ...    0.250
Number of operators              ...    1
Number of atoms                  ...   10
Basis set dimensions             ...  156
Integral neglect threshold       ... 2.5e-11
Integral primitive cutoff        ... 2.5e-12
SHARK Integral package           ... ON

Nuc. rep. gradient       (SHARK) ... done (  0.0 sec)
HCore & Overlap gradient (SHARK) ... done (  0.0 sec)
RI-J gradient            (SHARK) ... done (  0.2 sec)
COSX-gradient                    ... done (  0.6 sec)
Exchange-correlation gradient    ... done

------------------
CARTESIAN GRADIENT
------------------

   1   O   :    0.006584564    0.000276832   -0.000489093
   2   O   :    0.006584425   -0.000276878   -0.000488793
   3   O   :   -0.006584354    0.000276865    0.000488968
   4   O   :   -0.006584510   -0.000276869    0.000488867
   5   Si  :   -0.000000130    0.009428296    0.000000110
   6   Si  :   -0.000000167   -0.009428228    0.000000059
   7   Mg  :    0.002651034   -0.000000007    0.000199664
   8   Mg  :   -0.002651081   -0.000000011   -0.000199701
   9   O   :    0.000971756    0.000000160    0.003151500
  10   O   :   -0.000971571    0.000000011   -0.003151752

Difference to translation invariance:
           :   -0.0000000338    0.0000001707   -0.0000001721

Difference to rotation invariance:
           :    0.0000008954   -0.0010174062    0.0000011134

Norm of the cartesian gradient     ...    0.0197067855
RMS gradient                       ...    0.0035979503
MAX gradient                       ...    0.0094282962

-------
TIMINGS
-------

Total SCF gradient time            ...        1.278 sec

One electron gradient       ....       0.011 sec  (  0.8%)
RI-J Coulomb gradient       ....       0.159 sec  ( 12.5%)
COSX gradient               ....       0.636 sec  ( 49.8%)
XC gradient                 ....       0.249 sec  ( 19.5%)

Maximum memory used throughout the entire SCFGRAD-calculation: 39.7 MB
------------------------------------------------------------------------------
                         ORCA GEOMETRY RELAXATION STEP
------------------------------------------------------------------------------

Reading the OPT-File                    .... done
Getting information on internals        .... done
Copying old internal coords+grads       .... done
Making the new internal coordinates     .... (new redundants).... done
Validating the new internal coordinates .... (new redundants).... done
Calculating the B-matrix                .... done
Calculating the G,G- and P matrices     .... done
Transforming gradient to internals      .... done
Projecting the internal gradient        .... done
Number of atoms                         ....  10
Number of internal coordinates          .... 291
Current Energy                          .... -1429.352174745 Eh
Current gradient norm                   ....     0.019706785 Eh/bohr
Maximum allowed component of the step   ....  0.300
Current trust radius                    ....  0.300
Evaluating the initial hessian          ....  (Almloef) done
Projecting the Hessian                  .... done
Forming the augmented Hessian           .... done
Diagonalizing the augmented Hessian     .... done
Last element of RFO vector              ....  0.999349783
Lowest eigenvalues of augmented Hessian:
 -0.000296199  0.015325900  0.021762154  0.023400059  0.025303884
Length of the computed step             ....  0.036079114
The final length of the internal step   ....  0.036079114
Converting the step to cartesian space:
 Initial RMS(Int)=    0.0021149951
Transforming coordinates:
 Iter   0:  RMS(Cart)=    0.0029741455 RMS(Int)=    0.5208970704
 Iter   1:  RMS(Cart)=    0.0000067453 RMS(Int)=    0.0000100490
 Iter   2:  RMS(Cart)=    0.0000000484 RMS(Int)=    0.0000000758
done
Storing new coordinates                 .... done

                                .--------------------.
          ----------------------|Geometry convergence|-------------------------
          Item                value                   Tolerance       Converged
          ---------------------------------------------------------------------
          RMS gradient        0.0007529074            0.0000300000      NO
          MAX gradient        0.0047489422            0.0001000000      NO
          RMS step            0.0021149951            0.0006000000      NO
          MAX step            0.0093535833            0.0010000000      NO
          ........................................................
          Max(Bonds)      0.0049      Max(Angles)    0.21
          Max(Dihed)        0.38      Max(Improp)    0.00
          ---------------------------------------------------------------------

The optimization has not yet converged - more geometry cycles are needed


    ---------------------------------------------------------------------------
                         Redundant Internal Coordinates
                            (Angstroem and degrees)

        Definition                    Value    dE/dq     Step     New-Value
    ----------------------------------------------------------------------------
     1. B(Si  4,O   2)                1.6046 -0.004749  0.0028    1.6074   
     2. B(Si  4,O   0)                1.6046 -0.004749  0.0028    1.6074   
     3. B(Si  5,O   3)                1.6046 -0.004749  0.0028    1.6074   
     4. B(Si  5,Si  4)                2.5275 -0.001833  0.0049    2.5324   
     5. B(Si  5,O   1)                1.6046 -0.004749  0.0028    1.6074   
     6. B(Mg  6,O   1)                1.9753 -0.000958  0.0001    1.9753   
     7. B(Mg  6,O   0)                1.9753 -0.000958  0.0001    1.9753   
     8. B(Mg  6,Si  5)                2.5397 -0.002461  0.0027    2.5424   
     9. B(Mg  6,Si  4)                2.5397 -0.002461  0.0027    2.5424   
    10. B(Mg  7,Si  5)                2.5397 -0.002461  0.0027    2.5424   
    11. B(Mg  7,Si  4)                2.5397 -0.002461  0.0027    2.5424   
    12. B(Mg  7,O   3)                1.9753 -0.000958  0.0001    1.9753   
    13. B(Mg  7,O   2)                1.9753 -0.000958  0.0001    1.9753   
    14. B(O   8,Si  5)                1.7482 -0.001526  0.0023    1.7505   
    15. B(O   8,Si  4)                1.7482 -0.001526  0.0023    1.7505   
    16. B(O   8,Mg  6)                2.0602 -0.001720  0.0006    2.0608   
    17. B(O   9,Mg  7)                2.0602 -0.001720  0.0006    2.0608   
    18. B(O   9,Si  5)                1.7482 -0.001526  0.0023    1.7505   
    19. B(O   9,Si  4)                1.7482 -0.001526  0.0023    1.7505   
    20. A(Si  4,O   0,Mg  6)           89.76  0.000537    0.04     89.80   
[...]
     15       0.000000   0.000000   0.000000   0.000000   0.000000   0.000000
     16       0.000000   0.000000   0.000000   0.000000   0.000000   0.000000
     17       0.000000   0.000000   0.000000   0.000000   0.000000   0.000000
     18       0.000000   0.000000   0.000000   0.000000   0.000000   0.000000
     19       0.000000   0.000000   0.000000   0.000000   0.000000   0.000000
     20       0.000000   0.000000   0.000000   0.000000   0.000000   0.000000
     21       0.000000   0.000000   0.000000   0.000000   0.000000   0.000000
     22       0.000000   0.000000   0.000000   0.000000   0.000000   0.000000
     23       0.000000   0.000000   0.000000   0.000000   0.000000   0.000000
     24       0.000000   0.000000   0.000000   0.000000   0.000000   0.000000
     25       0.000000   0.000000   0.000000   0.000000   0.000000   0.000000
     26       0.000000   0.000000   0.000000   0.000000   0.000000   0.000000
     27       0.000000   0.000000   0.000000   0.000000   0.000000   0.000000
     28       0.000000   0.000000   0.000000   0.000000   0.000000   0.000000
     29       0.000000   0.000000   0.000000   0.000000   0.000000   0.000000
                  6          7          8          9         10         11    
      0       0.089741   0.010703  -0.007268  -0.063410   0.061591  -0.212920
      1      -0.139434  -0.185270   0.098662   0.355537  -0.206326   0.126920
      2      -0.090890  -0.304457   0.484699   0.181974   0.201747  -0.062788
      3       0.089741   0.010703   0.007268  -0.063410   0.061589   0.212920
      4       0.139434   0.185270   0.098662  -0.355536   0.206325   0.126922
      5      -0.090891  -0.304459  -0.484699   0.181973   0.201746   0.062789
      6       0.089741  -0.010703   0.007268  -0.063409  -0.061590   0.212919
      7       0.139435  -0.185270   0.098663  -0.355536  -0.206327   0.126921
      8      -0.090891   0.304458  -0.484699   0.181973  -0.201746   0.062788
      9       0.089741  -0.010704  -0.007268  -0.063409  -0.061589  -0.212919
     10      -0.139434   0.185270   0.098662   0.355535   0.206326   0.126923
     11      -0.090891   0.304459   0.484699   0.181974  -0.201745  -0.062788
     12       0.028576  -0.000000   0.000000   0.038377   0.000000  -0.000000
     13      -0.000000  -0.089173  -0.038413   0.000001  -0.232234  -0.350944
     14      -0.272048  -0.000000   0.000000  -0.151780  -0.000000   0.000000
     15       0.028576  -0.000000  -0.000000   0.038376  -0.000000   0.000000
     16      -0.000000   0.089174  -0.038413  -0.000000   0.232236  -0.350942
     17      -0.272048  -0.000000   0.000000  -0.151780   0.000000  -0.000000
     18      -0.031808   0.119361  -0.000000  -0.133863   0.493394   0.000002
     19       0.000000  -0.000000  -0.024949  -0.000000  -0.000001   0.416153
     20       0.541431   0.389732  -0.000001   0.088262  -0.129546  -0.000000
     21      -0.031809  -0.119360   0.000000  -0.133862  -0.493395  -0.000001
     22       0.000000  -0.000000  -0.024949  -0.000000  -0.000001   0.416153
     23       0.541431  -0.389732   0.000000   0.088261   0.129545   0.000000
     24      -0.181326   0.266470  -0.000001   0.262808  -0.025132  -0.000001
     25      -0.000000   0.000000  -0.091989   0.000000   0.000001  -0.269969
     26      -0.163162   0.025187   0.000000  -0.231583   0.105282   0.000000
     27      -0.181326  -0.266471   0.000001   0.262808   0.025134   0.000001
     28       0.000000   0.000000  -0.091989  -0.000000   0.000001  -0.269969
     29      -0.163162  -0.025188   0.000000  -0.231583  -0.105282  -0.000001
                 12         13         14         15         16         17    
      0      -0.196149   0.049663   0.010765   0.203993   0.266564  -0.144895
      1      -0.250389  -0.091822  -0.260830   0.184095  -0.120068   0.326740
      2      -0.238281   0.331466  -0.146865  -0.186267   0.107446  -0.059685
      3       0.196149   0.049663   0.010764  -0.203993   0.266563   0.144896
      4      -0.250388   0.091822   0.260829   0.184097   0.120066   0.326741
      5       0.238283   0.331464  -0.146866   0.186269   0.107446   0.059686
      6      -0.196150   0.049663  -0.010763   0.203993   0.266563  -0.144892
      7       0.250388   0.091826  -0.260828  -0.184096   0.120068  -0.326736
      8      -0.238281   0.331462   0.146873  -0.186266   0.107446  -0.059684
      9       0.196149   0.049663  -0.010762  -0.203993   0.266562   0.144893
     10       0.250389  -0.091826   0.260827  -0.184096  -0.120066  -0.326736
     11       0.238283   0.331461   0.146872   0.186269   0.107446   0.059685
     12      -0.208379  -0.046066  -0.000000   0.275225   0.168081   0.044728
     13       0.000000   0.000002  -0.125696   0.000000   0.000000   0.000000
     14       0.349585  -0.086005  -0.000002   0.377183  -0.017304   0.047334
     15       0.208379  -0.046065   0.000000  -0.275226   0.168081  -0.044727
     16       0.000001  -0.000001   0.125697   0.000000  -0.000001  -0.000000
     17      -0.349586  -0.086001  -0.000000  -0.377184  -0.017304  -0.047334
     18       0.000001   0.194431  -0.198064   0.000000  -0.505208  -0.000001
     19      -0.117135  -0.000001  -0.000000   0.229459   0.000002  -0.443181
     20      -0.000000  -0.134595  -0.081862  -0.000001  -0.134544  -0.000000
     21       0.000001   0.194428   0.198065   0.000001  -0.505208  -0.000001
     22       0.117134  -0.000000   0.000000  -0.229459  -0.000001   0.443177
     23      -0.000000  -0.134596   0.081860  -0.000000  -0.134545  -0.000000
     24      -0.000001  -0.313822  -0.473858  -0.000002  -0.060697  -0.000001
     25      -0.068941  -0.000001   0.000000   0.094506  -0.000001   0.191630
     26      -0.000001  -0.307481   0.185186  -0.000000   0.019879   0.000000
     27       0.000000  -0.313832   0.473852   0.000000  -0.060701  -0.000001
     28       0.068942   0.000001   0.000000  -0.094506   0.000000  -0.191632
     29      -0.000001  -0.307477  -0.185192  -0.000001   0.019880   0.000000
                 18         19         20         21         22         23    
      0      -0.014303  -0.343483  -0.218297   0.084210  -0.015356   0.134597
      1      -0.221363   0.221722   0.334294   0.298217   0.120267   0.060735
      2       0.194761  -0.026345  -0.100907  -0.081434  -0.167487  -0.008379
      3      -0.014305  -0.343472   0.218315   0.084210   0.015354   0.134601
      4       0.221360  -0.221704   0.334308  -0.298215   0.120273  -0.060732
      5       0.194760  -0.026339   0.100909  -0.081429   0.167488  -0.008379
      6       0.014302   0.343484   0.218299   0.084210  -0.015356  -0.134597
      7      -0.221363   0.221722   0.334297  -0.298217  -0.120268   0.060735
      8      -0.194762   0.026345   0.100907  -0.081434  -0.167487   0.008377
      9       0.014304   0.343472  -0.218316   0.084210   0.015354  -0.134601
     10       0.221360  -0.221705   0.334311   0.298215  -0.120273  -0.060732
     11      -0.194761   0.026341  -0.100910  -0.081430   0.167488   0.008378
     12      -0.000000   0.000000   0.000000   0.143341   0.058529   0.000000
     13      -0.154287  -0.322204   0.031749  -0.000000  -0.000000   0.161009
     14       0.000000   0.000000  -0.000000  -0.001591  -0.087241   0.000002
     15      -0.000000  -0.000000   0.000000   0.143340  -0.058532   0.000000
     16       0.154287   0.322206   0.031734   0.000000  -0.000000  -0.161021
     17       0.000000  -0.000000   0.000000  -0.001589   0.087243   0.000003
     18      -0.320817  -0.008565  -0.000001   0.044378  -0.000001   0.012241
     19       0.000002  -0.000009  -0.351601   0.000000  -0.031471  -0.000003
     20      -0.078742   0.031525  -0.000001  -0.013006   0.000000  -0.017315
     21       0.320818   0.008564   0.000001   0.044378  -0.000001  -0.012242
     22       0.000002  -0.000009  -0.351606   0.000000   0.031472  -0.000003
     23       0.078743  -0.031525   0.000001  -0.013006   0.000000   0.017316
     24       0.436638  -0.000851   0.000002  -0.487468   0.000005   0.118272
     25       0.000001  -0.000005  -0.190188  -0.000007  -0.634402   0.000012
     26       0.046311   0.243846  -0.000006   0.185413  -0.000004   0.644889
     27      -0.436637   0.000850  -0.000002  -0.487468   0.000005  -0.118272
     28       0.000001  -0.000004  -0.190184   0.000007   0.634404   0.000014
     29      -0.046311  -0.243846   0.000006   0.185412  -0.000001  -0.644894
                 24         25         26         27         28         29    
      0      -0.099891  -0.038097   0.418406  -0.383736   0.353795   0.357169
      1       0.047320  -0.045189   0.224953  -0.208498   0.147642   0.120431
      2       0.021210   0.136026  -0.060352   0.053111  -0.043537  -0.035126
      3       0.099882  -0.038104  -0.418403  -0.383738  -0.353787   0.357179
      4       0.047325   0.045187   0.224951   0.208499   0.147639  -0.120435
      5      -0.021202   0.136028   0.060350   0.053111   0.043535  -0.035127
      6       0.099889  -0.038106  -0.418405   0.383735   0.353796   0.357170
      7       0.047322   0.045188   0.224952  -0.208497  -0.147642  -0.120431
      8      -0.021202   0.136027   0.060351  -0.053111  -0.043537  -0.035126
      9      -0.099885  -0.038099   0.418404   0.383738  -0.353786   0.357178
     10       0.047323  -0.045191   0.224951   0.208499  -0.147639   0.120435
     11       0.021210   0.136026  -0.060351  -0.053111   0.043535  -0.035127
     12      -0.000001  -0.045747  -0.000000   0.000000  -0.445344  -0.456383
     13      -0.300974   0.000010  -0.189087   0.320093   0.000000   0.000000
     14      -0.000011  -0.393028   0.000000  -0.000000   0.030384   0.013727
     15      -0.000001  -0.045747  -0.000000  -0.000000   0.445332  -0.456395
     16      -0.300967   0.000008  -0.189085  -0.320094  -0.000000   0.000000
     17      -0.000011  -0.393027   0.000000  -0.000000  -0.030383   0.013728
     18       0.000001   0.051691  -0.000000   0.084147   0.000000   0.017664
     19      -0.115337   0.000003  -0.033432   0.000000  -0.053319   0.000001
     20      -0.000002  -0.076251   0.000000  -0.005945   0.000000   0.011032
     21       0.000002   0.051691   0.000000  -0.084147   0.000000   0.017664
     22      -0.115337   0.000003  -0.033432  -0.000000   0.053319  -0.000001
     23      -0.000003  -0.076251   0.000000   0.005945   0.000000   0.011032
     24      -0.000001   0.077986   0.000000   0.000804   0.000001   0.060002
     25       0.608919  -0.000020  -0.067178  -0.000001  -0.013604   0.000000
     26       0.000000   0.533741  -0.000001   0.057720   0.000000   0.029396
     27       0.000005   0.077984  -0.000000  -0.000804   0.000001   0.060002
     28       0.608918  -0.000017  -0.067178  -0.000000   0.013604  -0.000000
     29       0.000030   0.533732   0.000000  -0.057719   0.000000   0.029396


-----------
IR SPECTRUM
-----------

 Mode   freq       eps      Int      T**2         TX        TY        TZ
       cm**-1   L/(mol*cm) km/mol    a.u.
----------------------------------------------------------------------------
  6:    119.13   0.010590   53.52  0.027742  ( 0.005479 -0.000000  0.166468)
  7:    214.51   0.000000    0.00  0.000000  ( 0.000000  0.000000  0.000000)
  8:    258.90   0.000963    4.87  0.001161  ( 0.000000 -0.034067  0.000000)
  9:    309.25   0.003753   18.97  0.003787  (-0.046119  0.000000 -0.040745)
 10:    323.16   0.000000    0.00  0.000000  (-0.000000  0.000000 -0.000000)
 11:    338.22   0.000034    0.17  0.000031  ( 0.000000 -0.005563 -0.000000)
 12:    376.58   0.000000    0.00  0.000000  ( 0.000000 -0.000000 -0.000000)
 13:    385.36   0.013742   69.44  0.011128  ( 0.077150  0.000000 -0.071943)
 14:    398.35   0.000000    0.00  0.000000  ( 0.000000  0.000000 -0.000001)
 15:    420.66   0.000000    0.00  0.000000  ( 0.000000  0.000000 -0.000000)
 16:    469.66   0.049304  249.16  0.032760  (-0.172044  0.000000 -0.056220)
 17:    519.99   0.000000    0.00  0.000000  (-0.000000 -0.000001 -0.000000)
 18:    535.05   0.000000    0.00  0.000000  ( 0.000000  0.000000  0.000000)
 19:    566.00   0.000000    0.00  0.000000  (-0.000000 -0.000002 -0.000000)
 20:    573.81   0.015173   76.68  0.008252  ( 0.000000 -0.090839  0.000000)
 21:    610.37   0.013527   68.36  0.006916  ( 0.083161  0.000000  0.000510)
 22:    623.62   0.000000    0.00  0.000000  (-0.000001 -0.000000  0.000000)
 23:    746.78   0.000000    0.00  0.000000  ( 0.000000 -0.000005  0.000001)
 24:    757.36   0.104144  526.30  0.042912  (-0.000000 -0.207152 -0.000005)
 25:    765.95   0.075085  379.45  0.030591  (-0.004138  0.000006 -0.174854)
 26:    837.25   0.037388  188.94  0.013936  (-0.000000 -0.118049  0.000000)
 27:    914.96   0.000000    0.00  0.000000  ( 0.000000 -0.000000 -0.000000)
 28:   1097.36   0.000000    0.00  0.000000  (-0.000003  0.000000  0.000000)
 29:   1130.15   0.151413  765.18  0.041809  (-0.204473  0.000000  0.000240)

* The epsilon (eps) is given for a Dirac delta lineshape.
** The dipole moment derivative (T) already includes vibrational overlap.

The first frequency considered to be a vibration is 6
The total number of vibrations considered is 24


--------------------------
THERMOCHEMISTRY AT 298.15K
--------------------------

Temperature         ... 298.15 K
Pressure            ... 1.00 atm
Total Mass          ... 200.78 AMU

Throughout the following assumptions are being made:
  (1) The electronic state is orbitally nondegenerate
  (2) There are no thermally accessible electronically excited states
  (3) Hindered rotations indicated by low frequency modes are not
      treated as such but are treated as vibrations and this may
      cause some error
  (4) All equations used are the standard statistical mechanics
      equations for an ideal gas
  (5) All vibrations are strictly harmonic

freq.     119.13  E(vib)   ...       0.44 
freq.     214.51  E(vib)   ...       0.34 
freq.     258.90  E(vib)   ...       0.30 
freq.     309.25  E(vib)   ...       0.26 
freq.     323.16  E(vib)   ...       0.25 
freq.     338.22  E(vib)   ...       0.24 
freq.     376.58  E(vib)   ...       0.21 
freq.     385.36  E(vib)   ...       0.20 
freq.     398.35  E(vib)   ...       0.20 
freq.     420.66  E(vib)   ...       0.18 
freq.     469.66  E(vib)   ...       0.16 
freq.     519.99  E(vib)   ...       0.13 
freq.     535.05  E(vib)   ...       0.13 
freq.     566.00  E(vib)   ...       0.11 
freq.     573.81  E(vib)   ...       0.11 
freq.     610.37  E(vib)   ...       0.10 
freq.     623.62  E(vib)   ...       0.09 
freq.     746.78  E(vib)   ...       0.06 
freq.     757.36  E(vib)   ...       0.06 
freq.     765.95  E(vib)   ...       0.06 
freq.     837.25  E(vib)   ...       0.04 
freq.     914.96  E(vib)   ...       0.03 
freq.    1097.36  E(vib)   ...       0.02 
freq.    1130.15  E(vib)   ...       0.01 

------------
INNER ENERGY
------------

The inner energy is: U= E(el) + E(ZPE) + E(vib) + E(rot) + E(trans)
    E(el)   - is the total energy from the electronic structure calculation
              = E(kin-el) + E(nuc-el) + E(el-el) + E(nuc-nuc)
    E(ZPE)  - the the zero temperature vibrational energy from the frequency calculation
    E(vib)  - the the finite temperature correction to E(ZPE) due to population
              of excited vibrational states
    E(rot)  - is the rotational thermal energy
    E(trans)- is the translational thermal energy

Summary of contributions to the inner energy U:
Electronic energy                ...  -1429.35284833 Eh
Zero point energy                ...      0.03028239 Eh      19.00 kcal/mol
Thermal vibrational correction   ...      0.00589956 Eh       3.70 kcal/mol
Thermal rotational correction    ...      0.00141627 Eh       0.89 kcal/mol
Thermal translational correction ...      0.00141627 Eh       0.89 kcal/mol
-----------------------------------------------------------------------
Total thermal energy                  -1429.31383384 Eh


Summary of corrections to the electronic energy:
(perhaps to be used in another calculation)
Total thermal correction                  0.00873210 Eh       5.48 kcal/mol
Non-thermal (ZPE) correction              0.03028239 Eh      19.00 kcal/mol
-----------------------------------------------------------------------
Total correction                          0.03901449 Eh      24.48 kcal/mol


--------
ENTHALPY
--------

The enthalpy is H = U + kB*T
                kB is Boltzmann's constant
Total free energy                 ...  -1429.31383384 Eh 
Thermal Enthalpy correction       ...      0.00094421 Eh       0.59 kcal/mol
-----------------------------------------------------------------------
Total Enthalpy                    ...  -1429.31288963 Eh


Note: Rotational entropy computed according to Herzberg 
Infrared and Raman Spectra, Chapter V,1, Van Nostrand Reinhold, 1945 
Point Group:  C2h, Symmetry Number:   2  
Rotational constants in cm-1:     0.048813     0.038843     0.024666 

Vibrational entropy computed according to the QRRHO of S. Grimme
Chem.Eur.J. 2012 18 9955


-------
ENTROPY
-------

The entropy contributions are T*S = T*(S(el)+S(vib)+S(rot)+S(trans))
     S(el)   - electronic entropy
     S(vib)  - vibrational entropy
     S(rot)  - rotational entropy
     S(trans)- translational entropy
The entropies will be listed as multiplied by the temperature to get
units of energy

Electronic entropy                ...      0.00000000 Eh      0.00 kcal/mol
Vibrational entropy               ...      0.00923284 Eh      5.79 kcal/mol
Rotational entropy                ...      0.01356325 Eh      8.51 kcal/mol
Translational entropy             ...      0.01985841 Eh     12.46 kcal/mol
-----------------------------------------------------------------------
Final entropy term                ...      0.04265450 Eh     26.77 kcal/mol

In case the symmetry of your molecule has not been determined correctly
or in case you have a reason to use a different symmetry number we print 
out the resulting rotational entropy values for sn=1,12 :
 --------------------------------------------------------
|  sn= 1 | S(rot)=       0.01421771 Eh      8.92 kcal/mol|
|  sn= 2 | S(rot)=       0.01356325 Eh      8.51 kcal/mol|
|  sn= 3 | S(rot)=       0.01318042 Eh      8.27 kcal/mol|
|  sn= 4 | S(rot)=       0.01290879 Eh      8.10 kcal/mol|
|  sn= 5 | S(rot)=       0.01269811 Eh      7.97 kcal/mol|
|  sn= 6 | S(rot)=       0.01252596 Eh      7.86 kcal/mol|
|  sn= 7 | S(rot)=       0.01238042 Eh      7.77 kcal/mol|
|  sn= 8 | S(rot)=       0.01225434 Eh      7.69 kcal/mol|
|  sn= 9 | S(rot)=       0.01214313 Eh      7.62 kcal/mol|
|  sn=10 | S(rot)=       0.01204365 Eh      7.56 kcal/mol|
|  sn=11 | S(rot)=       0.01195366 Eh      7.50 kcal/mol|
|  sn=12 | S(rot)=       0.01187150 Eh      7.45 kcal/mol|
 --------------------------------------------------------


-------------------
GIBBS FREE ENERGY
-------------------

The Gibbs free energy is G = H - T*S

Total enthalpy                    ...  -1429.31288963 Eh 
Total entropy correction          ...     -0.04265450 Eh    -26.77 kcal/mol
-----------------------------------------------------------------------
Final Gibbs free energy         ...  -1429.35554413 Eh

For completeness - the Gibbs free energy minus the electronic energy
G-E(el)                           ...     -0.00269580 Eh     -1.69 kcal/mol


Timings for individual modules:

Sum of individual times         ...       73.056 sec (=   1.218 min)
GTO integral calculation        ...        4.563 sec (=   0.076 min)   6.2 %
SCF iterations                  ...       30.511 sec (=   0.509 min)  41.8 %
SCF Gradient evaluation         ...       10.265 sec (=   0.171 min)  14.1 %
Geometry relaxation             ...        0.496 sec (=   0.008 min)   0.7 %
Analytical frequency calculation...       27.221 sec (=   0.454 min)  37.3 %
                             ****ORCA TERMINATED NORMALLY****
TOTAL RUN TIME: 0 days 0 hours 1 minutes 15 seconds 915 msec
