10
* (null), Energy   -1000.0000000
O    -1.522076   -1.792290    0.147298    0.407986    0.368190   -0.372534
O    -1.522076    1.792290    0.147296   -0.407986    0.368195    0.372538
O     1.522077   -1.792289   -0.147298    0.407986   -0.368193   -0.372532
O     1.522077    1.792289   -0.147296   -0.407987   -0.368193    0.372538
Si   -0.000000   -1.278539   -0.000001    0.550451    0.000000    0.754366
Si    0.000000    1.278539   -0.000000   -0.550452    0.000000   -0.754369
Mg   -2.182887   -0.000000   -0.350804    0.000001    0.458919   -0.000001
Mg    2.182887    0.000000    0.350806    0.000003   -0.458918   -0.000000
O    -0.292291   -0.000000   -1.172724   -0.000004    0.189012   -0.000000
O     0.292290   -0.000000    1.172724    0.000001   -0.189013   -0.000003
10
* Frequency(15)  420.6610
O    -1.475711   -1.750447    0.104961    0.407986    0.368190   -0.372534
O    -1.568441    1.834133    0.189633   -0.407986    0.368195    0.372538
O     1.568442   -1.834132   -0.189634    0.407986   -0.368193   -0.372532
O     1.475711    1.750446   -0.104959   -0.407987   -0.368193    0.372538
Si    0.062556   -1.278539    0.085729    0.550451    0.000000    0.754366
Si   -0.062556    1.278539   -0.085730   -0.550452    0.000000   -0.754369
Mg   -2.182887    0.052154   -0.350804    0.000001    0.458919   -0.000001
Mg    2.182887   -0.052153    0.350806    0.000003   -0.458918   -0.000000
O    -0.292292    0.021480   -1.172724   -0.000004    0.189012   -0.000000
O     0.292290   -0.021481    1.172723    0.000001   -0.189013   -0.000003
10
* Frequency(15)  420.6610
O    -1.434370   -1.713138    0.067213    0.407986    0.368190   -0.372534
O    -1.609782    1.871442    0.227382   -0.407986    0.368195    0.372538
O     1.609783   -1.871441   -0.227383    0.407986   -0.368193   -0.372532
O     1.434370    1.713137   -0.067210   -0.407987   -0.368193    0.372538
Si    0.118333   -1.278539    0.162169    0.550451    0.000000    0.754366
Si   -0.118333    1.278539   -0.162170   -0.550452    0.000000   -0.754369
Mg   -2.182887    0.098656   -0.350805    0.000001    0.458919   -0.000001
Mg    2.182888   -0.098655    0.350806    0.000003   -0.458918   -0.000000
O    -0.292292    0.040632   -1.172724   -0.000004    0.189012   -0.000000
O     0.292290   -0.040633    1.172723    0.000001   -0.189013   -0.000003
10
* Frequency(15)  420.6610
O    -1.402533   -1.684407    0.038142    0.407986    0.368190   -0.372534
O    -1.641619    1.900174    0.256452   -0.407986    0.368195    0.372538
O     1.641620   -1.900172   -0.256453    0.407986   -0.368193   -0.372532
O     1.402533    1.684406   -0.038139   -0.407987   -0.368193    0.372538
Si    0.161287   -1.278539    0.221035    0.550451    0.000000    0.754366
Si   -0.161287    1.278539   -0.221036   -0.550452    0.000000   -0.754369
Mg   -2.182887    0.134467   -0.350805    0.000001    0.458919   -0.000001
Mg    2.182888   -0.134467    0.350806    0.000003   -0.458918   -0.000000
O    -0.292292    0.055382   -1.172724   -0.000004    0.189012   -0.000000
O     0.292290   -0.055383    1.172723    0.000001   -0.189013   -0.000003
10
* Frequency(15)  420.6610
O    -1.383651   -1.667367    0.020901    0.407986    0.368190   -0.372534
O    -1.660501    1.917215    0.273694   -0.407986    0.368195    0.372538
O     1.660502   -1.917213   -0.273694    0.407986   -0.368193   -0.372532
O     1.383651    1.667365   -0.020898   -0.407987   -0.368193    0.372538
Si    0.186762   -1.278539    0.255948    0.550451    0.000000    0.754366
Si   -0.186763    1.278539   -0.255950   -0.550452    0.000000   -0.754369
Mg   -2.182887    0.155706   -0.350805    0.000001    0.458919   -0.000001
Mg    2.182888   -0.155706    0.350806    0.000003   -0.458918   -0.000000
O    -0.292292    0.064130   -1.172724   -0.000004    0.189012   -0.000000
O     0.292290   -0.064130    1.172723    0.000001   -0.189013   -0.000003
10
* Frequency(15)  420.6610
O    -1.379769   -1.663864    0.017356    0.407986    0.368190   -0.372534
O    -1.664383    1.920718    0.277239   -0.407986    0.368195    0.372538
O     1.664384   -1.920716   -0.277239    0.407986   -0.368193   -0.372532
O     1.379769    1.663862   -0.017353   -0.407987   -0.368193    0.372538
Si    0.192000   -1.278539    0.263126    0.550451    0.000000    0.754366
Si   -0.192000    1.278539   -0.263127   -0.550452    0.000000   -0.754369
Mg   -2.182887    0.160073   -0.350805    0.000001    0.458919   -0.000001
Mg    2.182888   -0.160072    0.350806    0.000003   -0.458918   -0.000000
O    -0.292293    0.065928   -1.172724   -0.000004    0.189012   -0.000000
O     0.292290   -0.065929    1.172723    0.000001   -0.189013   -0.000003
10
* Frequency(15)  420.6610
O    -1.391308   -1.674277    0.027893    0.407986    0.368190   -0.372534
O    -1.652844    1.910304    0.266702   -0.407986    0.368195    0.372538
O     1.652844   -1.910302   -0.266702    0.407986   -0.368193   -0.372532
O     1.391308    1.674276   -0.027890   -0.407987   -0.368193    0.372538
Si    0.176431   -1.278539    0.241789    0.550451    0.000000    0.754366
Si   -0.176431    1.278539   -0.241791   -0.550452    0.000000   -0.754369
Mg   -2.182887    0.147093   -0.350805    0.000001    0.458919   -0.000001
Mg    2.182888   -0.147092    0.350806    0.000003   -0.458918   -0.000000
O    -0.292292    0.060582   -1.172724   -0.000004    0.189012   -0.000000
O     0.292290   -0.060583    1.172723    0.000001   -0.189013   -0.000003
10
* Frequency(15)  420.6610
O    -1.417019   -1.697480    0.051369    0.407986    0.368190   -0.372534
O    -1.627134    1.887101    0.243225   -0.407986    0.368195    0.372538
O     1.627134   -1.887099   -0.243226    0.407986   -0.368193   -0.372532
O     1.417019    1.697478   -0.051366   -0.407987   -0.368193    0.372538
Si    0.141743   -1.278539    0.194251    0.550451    0.000000    0.754366
Si   -0.141743    1.278539   -0.194253   -0.550452    0.000000   -0.754369
Mg   -2.182887    0.118173   -0.350805    0.000001    0.458919   -0.000001
Mg    2.182888   -0.118173    0.350806    0.000003   -0.458918   -0.000000
O    -0.292292    0.048671   -1.172724   -0.000004    0.189012   -0.000000
O     0.292290   -0.048672    1.172723    0.000001   -0.189013   -0.000003
10
* Frequency(15)  420.6610
O    -1.454113   -1.730956    0.085241    0.407986    0.368190   -0.372534
O    -1.590039    1.853624    0.209354   -0.407986    0.368195    0.372538
O     1.590039   -1.853623   -0.209355    0.407986   -0.368193   -0.372532
O     1.454114    1.730955   -0.085238   -0.407987   -0.368193    0.372538
Si    0.091695   -1.278539    0.125663    0.550451    0.000000    0.754366
Si   -0.091695    1.278539   -0.125664   -0.550452    0.000000   -0.754369
Mg   -2.182887    0.076447   -0.350804    0.000001    0.458919   -0.000001
Mg    2.182888   -0.076447    0.350806    0.000003   -0.458918   -0.000000
O    -0.292292    0.031486   -1.172724   -0.000004    0.189012   -0.000000
O     0.292290   -0.031486    1.172723    0.000001   -0.189013   -0.000003
10
* Frequency(15)  420.6610
O    -1.498573   -1.771079    0.125837    0.407986    0.368190   -0.372534
O    -1.545579    1.813501    0.168757   -0.407986    0.368195    0.372538
O     1.545580   -1.813500   -0.168759    0.407986   -0.368193   -0.372532
O     1.498573    1.771078   -0.125835   -0.407987   -0.368193    0.372538
Si    0.031710   -1.278539    0.043457    0.550451    0.000000    0.754366
Si   -0.031710    1.278539   -0.043458   -0.550452    0.000000   -0.754369
Mg   -2.182887    0.026437   -0.350804    0.000001    0.458919   -0.000001
Mg    2.182887   -0.026437    0.350806    0.000003   -0.458918   -0.000000
O    -0.292291    0.010888   -1.172724   -0.000004    0.189012   -0.000000
O     0.292290   -0.010889    1.172723    0.000001   -0.189013   -0.000003
10
* Frequency(15)  420.6610
O    -1.545580   -1.813500    0.168759    0.407986    0.368190   -0.372534
O    -1.498573    1.771079    0.125835   -0.407986    0.368195    0.372538
O     1.498573   -1.771078   -0.125837    0.407986   -0.368193   -0.372532
O     1.545580    1.813500   -0.168757   -0.407987   -0.368193    0.372538
Si   -0.031710   -1.278539   -0.043458    0.550451    0.000000    0.754366
Si    0.031711    1.278539    0.043458   -0.550452    0.000000   -0.754369
Mg   -2.182887   -0.026437   -0.350804    0.000001    0.458919   -0.000001
Mg    2.182887    0.026438    0.350806    0.000003   -0.458918   -0.000000
O    -0.292291   -0.010889   -1.172724   -0.000004    0.189012   -0.000000
O     0.292290    0.010888    1.172724    0.000001   -0.189013   -0.000003
10
* Frequency(15)  420.6610
O    -1.590039   -1.853623    0.209355    0.407986    0.368190   -0.372534
O    -1.454113    1.730955    0.085238   -0.407986    0.368195    0.372538
O     1.454114   -1.730955   -0.085241    0.407986   -0.368193   -0.372532
O     1.590040    1.853623   -0.209354   -0.407987   -0.368193    0.372538
Si   -0.091695   -1.278539   -0.125664    0.550451    0.000000    0.754366
Si    0.091695    1.278539    0.125664   -0.550452    0.000000   -0.754369
Mg   -2.182887   -0.076447   -0.350804    0.000001    0.458919   -0.000001
Mg    2.182887    0.076447    0.350806    0.000003   -0.458918   -0.000000
O    -0.292291   -0.031486   -1.172724   -0.000004    0.189012   -0.000000
O     0.292290    0.031486    1.172724    0.000001   -0.189013   -0.000003
10
* Frequency(15)  420.6610
O    -1.627134   -1.887100    0.243227    0.407986    0.368190   -0.372534
O    -1.417018    1.697478    0.051366   -0.407986    0.368195    0.372538
O     1.417019   -1.697478   -0.051370    0.407986   -0.368193   -0.372532
O     1.627135    1.887100   -0.243226   -0.407987   -0.368193    0.372538
Si   -0.141743   -1.278539   -0.194252    0.550451    0.000000    0.754366
Si    0.141743    1.278539    0.194252   -0.550452    0.000000   -0.754369
Mg   -2.182887   -0.118173   -0.350804    0.000001    0.458919   -0.000001
Mg    2.182886    0.118173    0.350806    0.000003   -0.458918   -0.000000
O    -0.292290   -0.048671   -1.172724   -0.000004    0.189012   -0.000000
O     0.292290    0.048671    1.172724    0.000001   -0.189013   -0.000003
10
* Frequency(15)  420.6610
O    -1.652844   -1.910302    0.266703    0.407986    0.368190   -0.372534
O    -1.391308    1.674276    0.027890   -0.407986    0.368195    0.372538
O     1.391309   -1.674275   -0.027894    0.407986   -0.368193   -0.372532
O     1.652845    1.910303   -0.266702   -0.407987   -0.368193    0.372538
Si   -0.176431   -1.278539   -0.241791    0.550451    0.000000    0.754366
Si    0.176431    1.278539    0.241791   -0.550452    0.000000   -0.754369
Mg   -2.182887   -0.147093   -0.350804    0.000001    0.458919   -0.000001
Mg    2.182886    0.147093    0.350806    0.000003   -0.458918   -0.000000
O    -0.292290   -0.060582   -1.172724   -0.000004    0.189012   -0.000000
O     0.292290    0.060582    1.172725    0.000001   -0.189013   -0.000003
10
* Frequency(15)  420.6610
O    -1.664384   -1.920716    0.277239    0.407986    0.368190   -0.372534
O    -1.379769    1.663862    0.017353   -0.407986    0.368195    0.372538
O     1.379769   -1.663861   -0.017357    0.407986   -0.368193   -0.372532
O     1.664384    1.920716   -0.277239   -0.407987   -0.368193    0.372538
Si   -0.192000   -1.278539   -0.263127    0.550451    0.000000    0.754366
Si    0.192000    1.278539    0.263127   -0.550452    0.000000   -0.754369
Mg   -2.182887   -0.160073   -0.350804    0.000001    0.458919   -0.000001
Mg    2.182886    0.160073    0.350806    0.000003   -0.458918   -0.000000
O    -0.292290   -0.065928   -1.172724   -0.000004    0.189012   -0.000000
O     0.292290    0.065928    1.172725    0.000001   -0.189013   -0.000003
10
* Frequency(15)  420.6610
O    -1.660502   -1.917213    0.273695    0.407986    0.368190   -0.372534
O    -1.383650    1.667365    0.020897   -0.407986    0.368195    0.372538
O     1.383651   -1.667365   -0.020902    0.407986   -0.368193   -0.372532
O     1.660502    1.917213   -0.273695   -0.407987   -0.368193    0.372538
Si   -0.186762   -1.278539   -0.255950    0.550451    0.000000    0.754366
Si    0.186763    1.278539    0.255950   -0.550452    0.000000   -0.754369
Mg   -2.182887   -0.155707   -0.350804    0.000001    0.458919   -0.000001
Mg    2.182886    0.155706    0.350806    0.000003   -0.458918   -0.000000
O    -0.292290   -0.064130   -1.172724   -0.000004    0.189012   -0.000000
O     0.292290    0.064130    1.172725    0.000001   -0.189013   -0.000003
10
* Frequency(15)  420.6610
O    -1.641620   -1.900172    0.256453    0.407986    0.368190   -0.372534
O    -1.402533    1.684406    0.038139   -0.407986    0.368195    0.372538
O     1.402533   -1.684405   -0.038143    0.407986   -0.368193   -0.372532
O     1.641620    1.900173   -0.256453   -0.407987   -0.368193    0.372538
Si   -0.161287   -1.278539   -0.221036    0.550451    0.000000    0.754366
Si    0.161287    1.278539    0.221036   -0.550452    0.000000   -0.754369
Mg   -2.182887   -0.134467   -0.350804    0.000001    0.458919   -0.000001
Mg    2.182886    0.134467    0.350806    0.000003   -0.458918   -0.000000
O    -0.292290   -0.055382   -1.172724   -0.000004    0.189012   -0.000000
O     0.292290    0.055382    1.172725    0.000001   -0.189013   -0.000003
10
* Frequency(15)  420.6610
O    -1.609783   -1.871441    0.227383    0.407986    0.368190   -0.372534
O    -1.434369    1.713137    0.067210   -0.407986    0.368195    0.372538
O     1.434370   -1.713137   -0.067213    0.407986   -0.368193   -0.372532
O     1.609783    1.871441   -0.227382   -0.407987   -0.368193    0.372538
Si   -0.118333   -1.278539   -0.162170    0.550451    0.000000    0.754366
Si    0.118333    1.278539    0.162170   -0.550452    0.000000   -0.754369
Mg   -2.182887   -0.098656   -0.350804    0.000001    0.458919   -0.000001
Mg    2.182886    0.098656    0.350806    0.000003   -0.458918   -0.000000
O    -0.292290   -0.040633   -1.172724   -0.000004    0.189012   -0.000000
O     0.292290    0.040633    1.172724    0.000001   -0.189013   -0.000003
10
* Frequency(15)  420.6610
O    -1.568442   -1.834133    0.189634    0.407986    0.368190   -0.372534
O    -1.475710    1.750446    0.104959   -0.407986    0.368195    0.372538
O     1.475711   -1.750446   -0.104962    0.407986   -0.368193   -0.372532
O     1.568442    1.834132   -0.189633   -0.407987   -0.368193    0.372538
Si   -0.062556   -1.278539   -0.085730    0.550451    0.000000    0.754366
Si    0.062556    1.278539    0.085730   -0.550452    0.000000   -0.754369
Mg   -2.182887   -0.052154   -0.350804    0.000001    0.458919   -0.000001
Mg    2.182887    0.052154    0.350806    0.000003   -0.458918   -0.000000
O    -0.292291   -0.021481   -1.172724   -0.000004    0.189012   -0.000000
O     0.292290    0.021480    1.172724    0.000001   -0.189013   -0.000003
10
* Frequency(15)  420.6610
O    -1.522076   -1.792290    0.147298    0.407986    0.368190   -0.372534
O    -1.522076    1.792290    0.147296   -0.407986    0.368195    0.372538
O     1.522077   -1.792289   -0.147298    0.407986   -0.368193   -0.372532
O     1.522077    1.792289   -0.147296   -0.407987   -0.368193    0.372538
Si   -0.000000   -1.278539   -0.000001    0.550451    0.000000    0.754366
Si    0.000000    1.278539   -0.000000   -0.550452    0.000000   -0.754369
Mg   -2.182887   -0.000000   -0.350804    0.000001    0.458919   -0.000001
Mg    2.182887    0.000000    0.350806    0.000003   -0.458918   -0.000000
O    -0.292291   -0.000000   -1.172724   -0.000004    0.189012   -0.000000
O     0.292290   -0.000000    1.172724    0.000001   -0.189013   -0.000003
