10
* (null), Energy   -1000.0000000
O    -1.522076   -1.792290    0.147298   -0.126819    0.711075    0.363948
O    -1.522076    1.792290    0.147296   -0.126820   -0.711073    0.363946
O     1.522077   -1.792289   -0.147298   -0.126818   -0.711071    0.363946
O     1.522077    1.792289   -0.147296   -0.126818    0.711070    0.363948
Si   -0.000000   -1.278539   -0.000001    0.076753    0.000001   -0.303560
Si    0.000000    1.278539   -0.000000    0.076753   -0.000001   -0.303559
Mg   -2.182887   -0.000000   -0.350804   -0.267727   -0.000001    0.176523
Mg    2.182887    0.000000    0.350806   -0.267725   -0.000000    0.176522
O    -0.292291   -0.000000   -1.172724    0.525617    0.000000   -0.463166
O     0.292290   -0.000000    1.172724    0.525616   -0.000000   -0.463166
10
* Frequency(9)  309.2537
O    -1.536489   -1.711480    0.188659   -0.126819    0.711075    0.363948
O    -1.536488    1.711480    0.188656   -0.126820   -0.711073    0.363946
O     1.507664   -1.873098   -0.105937   -0.126818   -0.711071    0.363946
O     1.507664    1.873099   -0.105935   -0.126818    0.711070    0.363948
Si    0.008723   -1.278539   -0.034499    0.076753    0.000001   -0.303560
Si    0.008723    1.278539   -0.034498    0.076753   -0.000001   -0.303559
Mg   -2.213313   -0.000000   -0.330743   -0.267727   -0.000001    0.176523
Mg    2.152462    0.000000    0.370866   -0.267725   -0.000000    0.176522
O    -0.232558   -0.000000   -1.225360    0.525617    0.000000   -0.463166
O     0.352024   -0.000000    1.120087    0.525616   -0.000000   -0.463166
10
* Frequency(9)  309.2537
O    -1.549339   -1.639427    0.225537   -0.126819    0.711075    0.363948
O    -1.549339    1.639427    0.225535   -0.126820   -0.711073    0.363946
O     1.494814   -1.945151   -0.069059   -0.126818   -0.711071    0.363946
O     1.494814    1.945151   -0.069057   -0.126818    0.711070    0.363948
Si    0.016500   -1.278539   -0.065258    0.076753    0.000001   -0.303560
Si    0.016500    1.278539   -0.065258    0.076753   -0.000001   -0.303559
Mg   -2.240441   -0.000000   -0.312856   -0.267727   -0.000001    0.176523
Mg    2.125333    0.000000    0.388753   -0.267725   -0.000000    0.176522
O    -0.179297   -0.000000   -1.272293    0.525617    0.000000   -0.463166
O     0.405284   -0.000000    1.073155    0.525616   -0.000000   -0.463166
10
* Frequency(9)  309.2537
O    -1.559235   -1.583939    0.253938   -0.126819    0.711075    0.363948
O    -1.559235    1.583939    0.253935   -0.126820   -0.711073    0.363946
O     1.484918   -2.000638   -0.040659   -0.126818   -0.711071    0.363946
O     1.484918    2.000639   -0.040656   -0.126818    0.711070    0.363948
Si    0.022489   -1.278539   -0.088946    0.076753    0.000001   -0.303560
Si    0.022489    1.278539   -0.088945    0.076753   -0.000001   -0.303559
Mg   -2.261333   -0.000000   -0.299081   -0.267727   -0.000001    0.176523
Mg    2.104442    0.000000    0.402528   -0.267725   -0.000000    0.176522
O    -0.138281   -0.000000   -1.308435    0.525617    0.000000   -0.463166
O     0.446300   -0.000000    1.037012    0.525616   -0.000000   -0.463166
10
* Frequency(9)  309.2537
O    -1.565105   -1.551029    0.270782   -0.126819    0.711075    0.363948
O    -1.565105    1.551030    0.270779   -0.126820   -0.711073    0.363946
O     1.479048   -2.033548   -0.023815   -0.126818   -0.711071    0.363946
O     1.479048    2.033548   -0.023812   -0.126818    0.711070    0.363948
Si    0.026042   -1.278539   -0.102995    0.076753    0.000001   -0.303560
Si    0.026042    1.278539   -0.102995    0.076753   -0.000001   -0.303559
Mg   -2.273724   -0.000000   -0.290912   -0.267727   -0.000001    0.176523
Mg    2.092051    0.000000    0.410698   -0.267725   -0.000000    0.176522
O    -0.113955   -0.000000   -1.329872    0.525617    0.000000   -0.463166
O     0.470626   -0.000000    1.015576    0.525616   -0.000000   -0.463166
10
* Frequency(9)  309.2537
O    -1.566311   -1.544264    0.274245   -0.126819    0.711075    0.363948
O    -1.566311    1.544264    0.274242   -0.126820   -0.711073    0.363946
O     1.477842   -2.040314   -0.020352   -0.126818   -0.711071    0.363946
O     1.477842    2.040314   -0.020349   -0.126818    0.711070    0.363948
Si    0.026772   -1.278539   -0.105884    0.076753    0.000001   -0.303560
Si    0.026772    1.278539   -0.105883    0.076753   -0.000001   -0.303559
Mg   -2.276271   -0.000000   -0.289232   -0.267727   -0.000001    0.176523
Mg    2.089503    0.000000    0.412377   -0.267725   -0.000000    0.176522
O    -0.108954   -0.000000   -1.334278    0.525617    0.000000   -0.463166
O     0.475627   -0.000000    1.011169    0.525616   -0.000000   -0.463166
10
* Frequency(9)  309.2537
O    -1.562724   -1.564376    0.263951   -0.126819    0.711075    0.363948
O    -1.562724    1.564376    0.263948   -0.126820   -0.711073    0.363946
O     1.481429   -2.020202   -0.030646   -0.126818   -0.711071    0.363946
O     1.481429    2.020202   -0.030643   -0.126818    0.711070    0.363948
Si    0.024601   -1.278539   -0.097298    0.076753    0.000001   -0.303560
Si    0.024601    1.278539   -0.097297    0.076753   -0.000001   -0.303559
Mg   -2.268699   -0.000000   -0.294225   -0.267727   -0.000001    0.176523
Mg    2.097076    0.000000    0.407385   -0.267725   -0.000000    0.176522
O    -0.123820   -0.000000   -1.321178    0.525617    0.000000   -0.463166
O     0.460761   -0.000000    1.024270    0.525616   -0.000000   -0.463166
10
* Frequency(9)  309.2537
O    -1.554733   -1.609186    0.241016   -0.126819    0.711075    0.363948
O    -1.554732    1.609186    0.241013   -0.126820   -0.711073    0.363946
O     1.489420   -1.975392   -0.053581   -0.126818   -0.711071    0.363946
O     1.489420    1.975392   -0.053578   -0.126818    0.711070    0.363948
Si    0.019764   -1.278539   -0.078168    0.076753    0.000001   -0.303560
Si    0.019764    1.278539   -0.078168    0.076753   -0.000001   -0.303559
Mg   -2.251828   -0.000000   -0.305349   -0.267727   -0.000001    0.176523
Mg    2.113947    0.000000    0.396261   -0.267725   -0.000000    0.176522
O    -0.156943   -0.000000   -1.291991    0.525617    0.000000   -0.463166
O     0.427638   -0.000000    1.053457    0.525616   -0.000000   -0.463166
10
* Frequency(9)  309.2537
O    -1.543202   -1.673838    0.207925   -0.126819    0.711075    0.363948
O    -1.543202    1.673838    0.207922   -0.126820   -0.711073    0.363946
O     1.500951   -1.910740   -0.086671   -0.126818   -0.711071    0.363946
O     1.500951    1.910740   -0.086669   -0.126818    0.711070    0.363948
Si    0.012786   -1.278539   -0.050568    0.076753    0.000001   -0.303560
Si    0.012786    1.278539   -0.050568    0.076753   -0.000001   -0.303559
Mg   -2.227485   -0.000000   -0.321399   -0.267727   -0.000001    0.176523
Mg    2.138289    0.000000    0.380211   -0.267725   -0.000000    0.176522
O    -0.204733   -0.000000   -1.249879    0.525617    0.000000   -0.463166
O     0.379848   -0.000000    1.095569    0.525616   -0.000000   -0.463166
10
* Frequency(9)  309.2537
O    -1.529382   -1.751326    0.168264   -0.126819    0.711075    0.363948
O    -1.529382    1.751326    0.168262   -0.126820   -0.711073    0.363946
O     1.514771   -1.833252   -0.126332   -0.126818   -0.711071    0.363946
O     1.514771    1.833253   -0.126330   -0.126818    0.711070    0.363948
Si    0.004422   -1.278539   -0.017488    0.076753    0.000001   -0.303560
Si    0.004422    1.278539   -0.017488    0.076753   -0.000001   -0.303559
Mg   -2.198310   -0.000000   -0.340635   -0.267727   -0.000001    0.176523
Mg    2.167464    0.000000    0.360975   -0.267725   -0.000000    0.176522
O    -0.262011   -0.000000   -1.199406    0.525617    0.000000   -0.463166
O     0.322570   -0.000000    1.146042    0.525616   -0.000000   -0.463166
10
* Frequency(9)  309.2537
O    -1.514771   -1.833253    0.126332   -0.126819    0.711075    0.363948
O    -1.514770    1.833253    0.126329   -0.126820   -0.711073    0.363946
O     1.529382   -1.751325   -0.168264   -0.126818   -0.711071    0.363946
O     1.529382    1.751326   -0.168262   -0.126818    0.711070    0.363948
Si   -0.004422   -1.278539    0.017487    0.076753    0.000001   -0.303560
Si   -0.004421    1.278539    0.017487    0.076753   -0.000001   -0.303559
Mg   -2.167464    0.000000   -0.360973   -0.267727   -0.000001    0.176523
Mg    2.198310    0.000000    0.340637   -0.267725   -0.000000    0.176522
O    -0.322571   -0.000000   -1.146042    0.525617    0.000000   -0.463166
O     0.262010   -0.000000    1.199406    0.525616   -0.000000   -0.463166
10
* Frequency(9)  309.2537
O    -1.500951   -1.910742    0.086671   -0.126819    0.711075    0.363948
O    -1.500950    1.910741    0.086669   -0.126820   -0.711073    0.363946
O     1.543202   -1.673837   -0.207925   -0.126818   -0.711071    0.363946
O     1.543202    1.673838   -0.207923   -0.126818    0.711070    0.363948
Si   -0.012786   -1.278540    0.050567    0.076753    0.000001   -0.303560
Si   -0.012785    1.278539    0.050567    0.076753   -0.000001   -0.303559
Mg   -2.138289    0.000000   -0.380210   -0.267727   -0.000001    0.176523
Mg    2.227485    0.000000    0.321400   -0.267725   -0.000000    0.176522
O    -0.379849   -0.000000   -1.095569    0.525617    0.000000   -0.463166
O     0.204732   -0.000000    1.249879    0.525616   -0.000000   -0.463166
10
* Frequency(9)  309.2537
O    -1.489420   -1.975394    0.053580   -0.126819    0.711075    0.363948
O    -1.489419    1.975393    0.053578   -0.126820   -0.711073    0.363946
O     1.554733   -1.609185   -0.241015   -0.126818   -0.711071    0.363946
O     1.554733    1.609186   -0.241014   -0.126818    0.711070    0.363948
Si   -0.019764   -1.278540    0.078167    0.076753    0.000001   -0.303560
Si   -0.019764    1.278539    0.078167    0.076753   -0.000001   -0.303559
Mg   -2.113947    0.000000   -0.396260   -0.267727   -0.000001    0.176523
Mg    2.251827    0.000000    0.305351   -0.267725   -0.000000    0.176522
O    -0.427639   -0.000000   -1.053457    0.525617    0.000000   -0.463166
O     0.156942   -0.000000    1.291990    0.525616   -0.000000   -0.463166
10
* Frequency(9)  309.2537
O    -1.481428   -2.020204    0.030645   -0.126819    0.711075    0.363948
O    -1.481427    2.020203    0.030644   -0.126820   -0.711073    0.363946
O     1.562724   -1.564376   -0.263950   -0.126818   -0.711071    0.363946
O     1.562725    1.564377   -0.263949   -0.126818    0.711070    0.363948
Si   -0.024601   -1.278540    0.097297    0.076753    0.000001   -0.303560
Si   -0.024601    1.278539    0.097297    0.076753   -0.000001   -0.303559
Mg   -2.097075    0.000000   -0.407384   -0.267727   -0.000001    0.176523
Mg    2.268698    0.000000    0.294227   -0.267725   -0.000000    0.176522
O    -0.460762   -0.000000   -1.024269    0.525617    0.000000   -0.463166
O     0.123819   -0.000000    1.321178    0.525616   -0.000000   -0.463166
10
* Frequency(9)  309.2537
O    -1.477841   -2.040316    0.020351   -0.126819    0.711075    0.363948
O    -1.477840    2.040315    0.020350   -0.126820   -0.711073    0.363946
O     1.566311   -1.544264   -0.274244   -0.126818   -0.711071    0.363946
O     1.566311    1.544265   -0.274243   -0.126818    0.711070    0.363948
Si   -0.026772   -1.278540    0.105883    0.076753    0.000001   -0.303560
Si   -0.026772    1.278539    0.105883    0.076753   -0.000001   -0.303559
Mg   -2.089503    0.000000   -0.412376   -0.267727   -0.000001    0.176523
Mg    2.276271    0.000000    0.289234   -0.267725   -0.000000    0.176522
O    -0.475629   -0.000000   -1.011169    0.525617    0.000000   -0.463166
O     0.108953   -0.000000    1.334278    0.525616   -0.000000   -0.463166
10
* Frequency(9)  309.2537
O    -1.479048   -2.033550    0.023814   -0.126819    0.711075    0.363948
O    -1.479047    2.033550    0.023812   -0.126820   -0.711073    0.363946
O     1.565105   -1.551029   -0.270781   -0.126818   -0.711071    0.363946
O     1.565105    1.551030   -0.270780   -0.126818    0.711070    0.363948
Si   -0.026042   -1.278540    0.102994    0.076753    0.000001   -0.303560
Si   -0.026041    1.278539    0.102994    0.076753   -0.000001   -0.303559
Mg   -2.092050    0.000000   -0.410697   -0.267727   -0.000001    0.176523
Mg    2.273723    0.000000    0.290913   -0.267725   -0.000000    0.176522
O    -0.470628   -0.000000   -1.015576    0.525617    0.000000   -0.463166
O     0.113954   -0.000000    1.329871    0.525616   -0.000000   -0.463166
10
* Frequency(9)  309.2537
O    -1.484917   -2.000640    0.040658   -0.126819    0.711075    0.363948
O    -1.484917    2.000640    0.040657   -0.126820   -0.711073    0.363946
O     1.559235   -1.583939   -0.253937   -0.126818   -0.711071    0.363946
O     1.559235    1.583940   -0.253936   -0.126818    0.711070    0.363948
Si   -0.022489   -1.278540    0.088945    0.076753    0.000001   -0.303560
Si   -0.022489    1.278539    0.088945    0.076753   -0.000001   -0.303559
Mg   -2.104441    0.000000   -0.402527   -0.267727   -0.000001    0.176523
Mg    2.261333    0.000000    0.299083   -0.267725   -0.000000    0.176522
O    -0.446301   -0.000000   -1.037012    0.525617    0.000000   -0.463166
O     0.138280   -0.000000    1.308435    0.525616   -0.000000   -0.463166
10
* Frequency(9)  309.2537
O    -1.494814   -1.945153    0.069058   -0.126819    0.711075    0.363948
O    -1.494813    1.945152    0.069057   -0.126820   -0.711073    0.363946
O     1.549339   -1.639427   -0.225537   -0.126818   -0.711071    0.363946
O     1.549339    1.639427   -0.225536   -0.126818    0.711070    0.363948
Si   -0.016500   -1.278540    0.065257    0.076753    0.000001   -0.303560
Si   -0.016500    1.278539    0.065257    0.076753   -0.000001   -0.303559
Mg   -2.125333    0.000000   -0.388752   -0.267727   -0.000001    0.176523
Mg    2.240441    0.000000    0.312858   -0.267725   -0.000000    0.176522
O    -0.405285   -0.000000   -1.073155    0.525617    0.000000   -0.463166
O     0.179296   -0.000000    1.272292    0.525616   -0.000000   -0.463166
10
* Frequency(9)  309.2537
O    -1.507664   -1.873100    0.105937   -0.126819    0.711075    0.363948
O    -1.507663    1.873099    0.105935   -0.126820   -0.711073    0.363946
O     1.536489   -1.711479   -0.188659   -0.126818   -0.711071    0.363946
O     1.536489    1.711480   -0.188657   -0.126818    0.711070    0.363948
Si   -0.008723   -1.278539    0.034497    0.076753    0.000001   -0.303560
Si   -0.008722    1.278539    0.034498    0.076753   -0.000001   -0.303559
Mg   -2.152461    0.000000   -0.370865   -0.267727   -0.000001    0.176523
Mg    2.213313    0.000000    0.330745   -0.267725   -0.000000    0.176522
O    -0.352025   -0.000000   -1.120087    0.525617    0.000000   -0.463166
O     0.232557   -0.000000    1.225360    0.525616   -0.000000   -0.463166
10
* Frequency(9)  309.2537
O    -1.522076   -1.792290    0.147298   -0.126819    0.711075    0.363948
O    -1.522076    1.792290    0.147296   -0.126820   -0.711073    0.363946
O     1.522077   -1.792289   -0.147298   -0.126818   -0.711071    0.363946
O     1.522077    1.792289   -0.147296   -0.126818    0.711070    0.363948
Si   -0.000000   -1.278539   -0.000001    0.076753    0.000001   -0.303560
Si    0.000000    1.278539   -0.000000    0.076753   -0.000001   -0.303559
Mg   -2.182887   -0.000000   -0.350804   -0.267727   -0.000001    0.176523
Mg    2.182887    0.000000    0.350806   -0.267725   -0.000000    0.176522
O    -0.292291   -0.000000   -1.172724    0.525617    0.000000   -0.463166
O     0.292290   -0.000000    1.172724    0.525616   -0.000000   -0.463166
