10
* (null), Energy   -1000.0000000
O    -1.522076   -1.792290    0.147298   -0.686967    0.443443   -0.052690
O    -1.522076    1.792290    0.147296   -0.686943   -0.443408   -0.052679
O     1.522077   -1.792289   -0.147298    0.686967    0.443444    0.052690
O     1.522077    1.792289   -0.147296    0.686944   -0.443411    0.052681
Si   -0.000000   -1.278539   -0.000001    0.000001   -0.644408    0.000000
Si    0.000000    1.278539   -0.000000   -0.000000    0.644411   -0.000000
Mg   -2.182887   -0.000000   -0.350804   -0.017129   -0.000018    0.063050
Mg    2.182887    0.000000    0.350806    0.017128   -0.000018   -0.063051
O    -0.292291   -0.000000   -1.172724   -0.001702   -0.000011    0.487692
O     0.292290   -0.000000    1.172724    0.001701   -0.000009   -0.487693
10
* Frequency(19)  566.0039
O    -1.600147   -1.741895    0.141310   -0.686967    0.443443   -0.052690
O    -1.600143    1.741899    0.141309   -0.686943   -0.443408   -0.052679
O     1.600147   -1.741894   -0.141310    0.686967    0.443444    0.052690
O     1.600144    1.741898   -0.141309    0.686944   -0.443411    0.052681
Si    0.000000   -1.351773   -0.000001    0.000001   -0.644408    0.000000
Si    0.000000    1.351773   -0.000000   -0.000000    0.644411   -0.000000
Mg   -2.184834   -0.000002   -0.343639   -0.017129   -0.000018    0.063050
Mg    2.184834   -0.000002    0.343640    0.017128   -0.000018   -0.063051
O    -0.292485   -0.000002   -1.117300   -0.001702   -0.000011    0.487692
O     0.292483   -0.000001    1.117300    0.001701   -0.000009   -0.487693
10
* Frequency(19)  566.0039
O    -1.669757   -1.696961    0.135971   -0.686967    0.443443   -0.052690
O    -1.669751    1.696968    0.135971   -0.686943   -0.443408   -0.052679
O     1.669757   -1.696959   -0.135971    0.686967    0.443444    0.052690
O     1.669752    1.696967   -0.135971    0.686944   -0.443411    0.052681
Si    0.000000   -1.417070   -0.000000    0.000001   -0.644408    0.000000
Si    0.000000    1.417071   -0.000000   -0.000000    0.644411   -0.000000
Mg   -2.186569   -0.000004   -0.337250   -0.017129   -0.000018    0.063050
Mg    2.186569   -0.000004    0.337251    0.017128   -0.000018   -0.063051
O    -0.292657   -0.000003   -1.067882   -0.001702   -0.000011    0.487692
O     0.292656   -0.000002    1.067882    0.001701   -0.000009   -0.487693
10
* Frequency(19)  566.0039
O    -1.723363   -1.662357    0.131859   -0.686967    0.443443   -0.052690
O    -1.723356    1.662368    0.131860   -0.686943   -0.443408   -0.052679
O     1.723364   -1.662356   -0.131859    0.686967    0.443444    0.052690
O     1.723357    1.662366   -0.131860    0.686944   -0.443411    0.052681
Si    0.000000   -1.467356   -0.000000    0.000001   -0.644408    0.000000
Si    0.000000    1.467357   -0.000000   -0.000000    0.644411   -0.000000
Mg   -2.187906   -0.000005   -0.332330   -0.017129   -0.000018    0.063050
Mg    2.187906   -0.000005    0.332331    0.017128   -0.000018   -0.063051
O    -0.292790   -0.000003   -1.029826   -0.001702   -0.000011    0.487692
O     0.292788   -0.000003    1.029826    0.001701   -0.000009   -0.487693
10
* Frequency(19)  566.0039
O    -1.755157   -1.641834    0.129421   -0.686967    0.443443   -0.052690
O    -1.755149    1.641846    0.129422   -0.686943   -0.443408   -0.052679
O     1.755158   -1.641832   -0.129421    0.686967    0.443444    0.052690
O     1.755150    1.641844   -0.129422    0.686944   -0.443411    0.052681
Si    0.000000   -1.497180   -0.000000    0.000001   -0.644408    0.000000
Si    0.000000    1.497182   -0.000000   -0.000000    0.644411   -0.000000
Mg   -2.188699   -0.000006   -0.329412   -0.017129   -0.000018    0.063050
Mg    2.188698   -0.000006    0.329413    0.017128   -0.000018   -0.063051
O    -0.292869   -0.000004   -1.007255   -0.001702   -0.000011    0.487692
O     0.292867   -0.000003    1.007254    0.001701   -0.000009   -0.487693
10
* Frequency(19)  566.0039
O    -1.761693   -1.637615    0.128919   -0.686967    0.443443   -0.052690
O    -1.761685    1.637627    0.128921   -0.686943   -0.443408   -0.052679
O     1.761694   -1.637613   -0.128919    0.686967    0.443444    0.052690
O     1.761686    1.637626   -0.128921    0.686944   -0.443411    0.052681
Si    0.000000   -1.503312   -0.000000    0.000001   -0.644408    0.000000
Si    0.000000    1.503313   -0.000000   -0.000000    0.644411   -0.000000
Mg   -2.188862   -0.000006   -0.328812   -0.017129   -0.000018    0.063050
Mg    2.188861   -0.000006    0.328813    0.017128   -0.000018   -0.063051
O    -0.292885   -0.000004   -1.002615   -0.001702   -0.000011    0.487692
O     0.292883   -0.000003    1.002614    0.001701   -0.000009   -0.487693
10
* Frequency(19)  566.0039
O    -1.742263   -1.650157    0.130410   -0.686967    0.443443   -0.052690
O    -1.742255    1.650168    0.130411   -0.686943   -0.443408   -0.052679
O     1.742264   -1.650156   -0.130410    0.686967    0.443444    0.052690
O     1.742257    1.650167   -0.130411    0.686944   -0.443411    0.052681
Si    0.000000   -1.485085   -0.000000    0.000001   -0.644408    0.000000
Si    0.000000    1.485086   -0.000000   -0.000000    0.644411   -0.000000
Mg   -2.188377   -0.000006   -0.330596   -0.017129   -0.000018    0.063050
Mg    2.188377   -0.000006    0.330597    0.017128   -0.000018   -0.063051
O    -0.292837   -0.000004   -1.016408   -0.001702   -0.000011    0.487692
O     0.292835   -0.000003    1.016408    0.001701   -0.000009   -0.487693
10
* Frequency(19)  566.0039
O    -1.698973   -1.678102    0.133730   -0.686967    0.443443   -0.052690
O    -1.698966    1.678111    0.133731   -0.686943   -0.443408   -0.052679
O     1.698973   -1.678100   -0.133730    0.686967    0.443444    0.052690
O     1.698967    1.678109   -0.133731    0.686944   -0.443411    0.052681
Si    0.000000   -1.444476   -0.000000    0.000001   -0.644408    0.000000
Si    0.000000    1.444477   -0.000000   -0.000000    0.644411   -0.000000
Mg   -2.187298   -0.000005   -0.334569   -0.017129   -0.000018    0.063050
Mg    2.187298   -0.000004    0.334570    0.017128   -0.000018   -0.063051
O    -0.292729   -0.000003   -1.047141   -0.001702   -0.000011    0.487692
O     0.292728   -0.000002    1.047141    0.001701   -0.000009   -0.487693
10
* Frequency(19)  566.0039
O    -1.636512   -1.718420    0.138521   -0.686967    0.443443   -0.052690
O    -1.636508    1.718426    0.138520   -0.686943   -0.443408   -0.052679
O     1.636513   -1.718419   -0.138521    0.686967    0.443444    0.052690
O     1.636509    1.718425   -0.138520    0.686944   -0.443411    0.052681
Si    0.000000   -1.385886   -0.000001    0.000001   -0.644408    0.000000
Si    0.000000    1.385886   -0.000000   -0.000000    0.644411   -0.000000
Mg   -2.185741   -0.000003   -0.340301   -0.017129   -0.000018    0.063050
Mg    2.185740   -0.000003    0.340303    0.017128   -0.000018   -0.063051
O    -0.292575   -0.000002   -1.091483   -0.001702   -0.000011    0.487692
O     0.292573   -0.000002    1.091483    0.001701   -0.000009   -0.487693
10
* Frequency(19)  566.0039
O    -1.561651   -1.766744    0.144263   -0.686967    0.443443   -0.052690
O    -1.561649    1.766746    0.144261   -0.686943   -0.443408   -0.052679
O     1.561651   -1.766743   -0.144263    0.686967    0.443444    0.052690
O     1.561650    1.766745   -0.144261    0.686944   -0.443411    0.052681
Si    0.000000   -1.315662   -0.000001    0.000001   -0.644408    0.000000
Si    0.000000    1.315663   -0.000000   -0.000000    0.644411   -0.000000
Mg   -2.183874   -0.000001   -0.347172   -0.017129   -0.000018    0.063050
Mg    2.183874   -0.000001    0.347173    0.017128   -0.000018   -0.063051
O    -0.292389   -0.000001   -1.144629   -0.001702   -0.000011    0.487692
O     0.292388   -0.000001    1.144629    0.001701   -0.000009   -0.487693
10
* Frequency(19)  566.0039
O    -1.482502   -1.817836    0.150333   -0.686967    0.443443   -0.052690
O    -1.482502    1.817834    0.150330   -0.686943   -0.443408   -0.052679
O     1.482502   -1.817835   -0.150333    0.686967    0.443444    0.052690
O     1.482503    1.817833   -0.150331    0.686944   -0.443411    0.052681
Si   -0.000000   -1.241416   -0.000001    0.000001   -0.644408    0.000000
Si    0.000000    1.241416   -0.000000   -0.000000    0.644411   -0.000000
Mg   -2.181900    0.000001   -0.354436   -0.017129   -0.000018    0.063050
Mg    2.181900    0.000001    0.354438    0.017128   -0.000018   -0.063051
O    -0.292193    0.000000   -1.200819   -0.001702   -0.000011    0.487692
O     0.292192    0.000000    1.200819    0.001701   -0.000009   -0.487693
10
* Frequency(19)  566.0039
O    -1.407640   -1.866159    0.156075   -0.686967    0.443443   -0.052690
O    -1.407644    1.866153    0.156071   -0.686943   -0.443408   -0.052679
O     1.407640   -1.866158   -0.156075    0.686967    0.443444    0.052690
O     1.407644    1.866153   -0.156072    0.686944   -0.443411    0.052681
Si   -0.000000   -1.171193   -0.000001    0.000001   -0.644408    0.000000
Si    0.000000    1.171192   -0.000000   -0.000000    0.644411   -0.000000
Mg   -2.180034    0.000003   -0.361307   -0.017129   -0.000018    0.063050
Mg    2.180034    0.000003    0.361309    0.017128   -0.000018   -0.063051
O    -0.292008    0.000002   -1.253964   -0.001702   -0.000011    0.487692
O     0.292007    0.000001    1.253964    0.001701   -0.000009   -0.487693
10
* Frequency(19)  566.0039
O    -1.345180   -1.906478    0.160866   -0.686967    0.443443   -0.052690
O    -1.345186    1.906469    0.160861   -0.686943   -0.443408   -0.052679
O     1.345180   -1.906477   -0.160866    0.686967    0.443444    0.052690
O     1.345186    1.906469   -0.160862    0.686944   -0.443411    0.052681
Si   -0.000000   -1.112602   -0.000001    0.000001   -0.644408    0.000000
Si    0.000000    1.112601   -0.000000   -0.000000    0.644411   -0.000000
Mg   -2.178476    0.000005   -0.367040   -0.017129   -0.000018    0.063050
Mg    2.178477    0.000005    0.367041    0.017128   -0.000018   -0.063051
O    -0.291853    0.000003   -1.298306   -0.001702   -0.000011    0.487692
O     0.291852    0.000002    1.298306    0.001701   -0.000009   -0.487693
10
* Frequency(19)  566.0039
O    -1.301889   -1.934422    0.164186   -0.686967    0.443443   -0.052690
O    -1.301896    1.934411    0.164180   -0.686943   -0.443408   -0.052679
O     1.301889   -1.934422   -0.164186    0.686967    0.443444    0.052690
O     1.301897    1.934412   -0.164182    0.686944   -0.443411    0.052681
Si   -0.000000   -1.071993   -0.000001    0.000001   -0.644408    0.000000
Si    0.000000    1.071992   -0.000000   -0.000000    0.644411   -0.000000
Mg   -2.177397    0.000006   -0.371013   -0.017129   -0.000018    0.063050
Mg    2.177397    0.000006    0.371015    0.017128   -0.000018   -0.063051
O    -0.291746    0.000003   -1.329039   -0.001702   -0.000011    0.487692
O     0.291745    0.000003    1.329039    0.001701   -0.000009   -0.487693
10
* Frequency(19)  566.0039
O    -1.282459   -1.946965    0.165677   -0.686967    0.443443   -0.052690
O    -1.282467    1.946952    0.165670   -0.686943   -0.443408   -0.052679
O     1.282459   -1.946964   -0.165677    0.686967    0.443444    0.052690
O     1.282467    1.946953   -0.165672    0.686944   -0.443411    0.052681
Si   -0.000000   -1.053767   -0.000001    0.000001   -0.644408    0.000000
Si    0.000000    1.053766   -0.000000   -0.000000    0.644411   -0.000000
Mg   -2.176912    0.000006   -0.372796   -0.017129   -0.000018    0.063050
Mg    2.176913    0.000006    0.372798    0.017128   -0.000018   -0.063051
O    -0.291698    0.000004   -1.342833   -0.001702   -0.000011    0.487692
O     0.291697    0.000003    1.342833    0.001701   -0.000009   -0.487693
10
* Frequency(19)  566.0039
O    -1.288995   -1.942746    0.165175   -0.686967    0.443443   -0.052690
O    -1.289003    1.942734    0.165169   -0.686943   -0.443408   -0.052679
O     1.288995   -1.942745   -0.165175    0.686967    0.443444    0.052690
O     1.289003    1.942734   -0.165170    0.686944   -0.443411    0.052681
Si   -0.000000   -1.059898   -0.000001    0.000001   -0.644408    0.000000
Si    0.000000    1.059897   -0.000000   -0.000000    0.644411   -0.000000
Mg   -2.177075    0.000006   -0.372196   -0.017129   -0.000018    0.063050
Mg    2.177076    0.000006    0.372198    0.017128   -0.000018   -0.063051
O    -0.291714    0.000003   -1.338193   -0.001702   -0.000011    0.487692
O     0.291713    0.000003    1.338193    0.001701   -0.000009   -0.487693
10
* Frequency(19)  566.0039
O    -1.320789   -1.922222    0.162737   -0.686967    0.443443   -0.052690
O    -1.320796    1.922212    0.162731   -0.686943   -0.443408   -0.052679
O     1.320789   -1.922222   -0.162737    0.686967    0.443444    0.052690
O     1.320796    1.922212   -0.162732    0.686944   -0.443411    0.052681
Si   -0.000000   -1.089723   -0.000001    0.000001   -0.644408    0.000000
Si    0.000000    1.089721   -0.000000   -0.000000    0.644411   -0.000000
Mg   -2.177868    0.000005   -0.369278   -0.017129   -0.000018    0.063050
Mg    2.177869    0.000005    0.369280    0.017128   -0.000018   -0.063051
O    -0.291793    0.000003   -1.315622   -0.001702   -0.000011    0.487692
O     0.291792    0.000002    1.315622    0.001701   -0.000009   -0.487693
10
* Frequency(19)  566.0039
O    -1.374396   -1.887619    0.158625   -0.686967    0.443443   -0.052690
O    -1.374401    1.887611    0.158620   -0.686943   -0.443408   -0.052679
O     1.374396   -1.887618   -0.158625    0.686967    0.443444    0.052690
O     1.374401    1.887611   -0.158621    0.686944   -0.443411    0.052681
Si   -0.000000   -1.140008   -0.000001    0.000001   -0.644408    0.000000
Si    0.000000    1.140007   -0.000000   -0.000000    0.644411   -0.000000
Mg   -2.179205    0.000004   -0.364358   -0.017129   -0.000018    0.063050
Mg    2.179205    0.000004    0.364360    0.017128   -0.000018   -0.063051
O    -0.291925    0.000002   -1.277565   -0.001702   -0.000011    0.487692
O     0.291924    0.000002    1.277565    0.001701   -0.000009   -0.487693
10
* Frequency(19)  566.0039
O    -1.444006   -1.842685    0.153286   -0.686967    0.443443   -0.052690
O    -1.444008    1.842681    0.153282   -0.686943   -0.443408   -0.052679
O     1.444006   -1.842684   -0.153286    0.686967    0.443444    0.052690
O     1.444009    1.842681   -0.153283    0.686944   -0.443411    0.052681
Si   -0.000000   -1.205306   -0.000001    0.000001   -0.644408    0.000000
Si    0.000000    1.205305   -0.000000   -0.000000    0.644411   -0.000000
Mg   -2.180940    0.000002   -0.357970   -0.017129   -0.000018    0.063050
Mg    2.180941    0.000002    0.357971    0.017128   -0.000018   -0.063051
O    -0.292098    0.000001   -1.228147   -0.001702   -0.000011    0.487692
O     0.292097    0.000001    1.228147    0.001701   -0.000009   -0.487693
10
* Frequency(19)  566.0039
O    -1.522076   -1.792290    0.147298   -0.686967    0.443443   -0.052690
O    -1.522076    1.792290    0.147296   -0.686943   -0.443408   -0.052679
O     1.522077   -1.792289   -0.147298    0.686967    0.443444    0.052690
O     1.522077    1.792289   -0.147296    0.686944   -0.443411    0.052681
Si   -0.000000   -1.278539   -0.000001    0.000001   -0.644408    0.000000
Si    0.000000    1.278539   -0.000000   -0.000000    0.644411   -0.000000
Mg   -2.182887   -0.000000   -0.350804   -0.017129   -0.000018    0.063050
Mg    2.182887    0.000000    0.350806    0.017128   -0.000018   -0.063051
O    -0.292291   -0.000000   -1.172724   -0.001702   -0.000011    0.487692
O     0.292290   -0.000000    1.172724    0.001701   -0.000009   -0.487693
