10
* (null), Energy   -1000.0000000
O    -1.522076   -1.792290    0.147298   -0.392298   -0.500779   -0.476562
O    -1.522076    1.792290    0.147296    0.392298   -0.500777    0.476565
O     1.522077   -1.792289   -0.147298   -0.392300    0.500776   -0.476562
O     1.522077    1.792289   -0.147296    0.392299    0.500778    0.476567
Si   -0.000000   -1.278539   -0.000001   -0.416758    0.000000    0.699171
Si    0.000000    1.278539   -0.000000    0.416757    0.000001   -0.699172
Mg   -2.182887   -0.000000   -0.350804    0.000002   -0.234271   -0.000001
Mg    2.182887    0.000000    0.350806    0.000001    0.234269   -0.000001
O    -0.292291   -0.000000   -1.172724   -0.000002   -0.137882   -0.000001
O     0.292290   -0.000000    1.172724    0.000000    0.137883   -0.000002
10
* Frequency(12)  376.5839
O    -1.566659   -1.849201    0.093139   -0.392298   -0.500779   -0.476562
O    -1.477493    1.735379    0.201455    0.392298   -0.500777    0.476565
O     1.477494   -1.735378   -0.201457   -0.392300    0.500776   -0.476562
O     1.566659    1.849200   -0.093137    0.392299    0.500778    0.476567
Si   -0.047362   -1.278539    0.079457   -0.416758    0.000000    0.699171
Si    0.047363    1.278539   -0.079457    0.416757    0.000001   -0.699172
Mg   -2.182887   -0.026624   -0.350804    0.000002   -0.234271   -0.000001
Mg    2.182887    0.026624    0.350806    0.000001    0.234269   -0.000001
O    -0.292291   -0.015670   -1.172724   -0.000002   -0.137882   -0.000001
O     0.292290    0.015670    1.172723    0.000000    0.137883   -0.000002
10
* Frequency(12)  376.5839
O    -1.606410   -1.899944    0.044849   -0.392298   -0.500779   -0.476562
O    -1.437742    1.684635    0.249745    0.392298   -0.500777    0.476565
O     1.437742   -1.684635   -0.249747   -0.392300    0.500776   -0.476562
O     1.606411    1.899944   -0.044846    0.392299    0.500778    0.476567
Si   -0.089592   -1.278539    0.150303   -0.416758    0.000000    0.699171
Si    0.089592    1.278539   -0.150304    0.416757    0.000001   -0.699172
Mg   -2.182887   -0.050362   -0.350804    0.000002   -0.234271   -0.000001
Mg    2.182887    0.050362    0.350806    0.000001    0.234269   -0.000001
O    -0.292292   -0.029641   -1.172724   -0.000002   -0.137882   -0.000001
O     0.292290    0.029641    1.172723    0.000000    0.137883   -0.000002
10
* Frequency(12)  376.5839
O    -1.637023   -1.939022    0.007661   -0.392298   -0.500779   -0.476562
O    -1.407129    1.645558    0.286933    0.392298   -0.500777    0.476565
O     1.407129   -1.645557   -0.286935   -0.392300    0.500776   -0.476562
O     1.637023    1.939021   -0.007658    0.392299    0.500778    0.476567
Si   -0.122113   -1.278539    0.204862   -0.416758    0.000000    0.699171
Si    0.122114    1.278540   -0.204863    0.416757    0.000001   -0.699172
Mg   -2.182887   -0.068643   -0.350804    0.000002   -0.234271   -0.000001
Mg    2.182887    0.068643    0.350805    0.000001    0.234269   -0.000001
O    -0.292292   -0.040401   -1.172724   -0.000002   -0.137882   -0.000001
O     0.292290    0.040401    1.172723    0.000000    0.137883   -0.000002
10
* Frequency(12)  376.5839
O    -1.655179   -1.962199   -0.014395   -0.392298   -0.500779   -0.476562
O    -1.388973    1.622381    0.308990    0.392298   -0.500777    0.476565
O     1.388973   -1.622380   -0.308991   -0.392300    0.500776   -0.476562
O     1.655180    1.962198    0.014398    0.392299    0.500778    0.476567
Si   -0.141402   -1.278539    0.237221   -0.416758    0.000000    0.699171
Si    0.141402    1.278540   -0.237222    0.416757    0.000001   -0.699172
Mg   -2.182887   -0.079486   -0.350805    0.000002   -0.234271   -0.000001
Mg    2.182887    0.079485    0.350805    0.000001    0.234269   -0.000001
O    -0.292292   -0.046782   -1.172724   -0.000002   -0.137882   -0.000001
O     0.292290    0.046782    1.172723    0.000000    0.137883   -0.000002
10
* Frequency(12)  376.5839
O    -1.658912   -1.966964   -0.018929   -0.392298   -0.500779   -0.476562
O    -1.385241    1.617616    0.313524    0.392298   -0.500777    0.476565
O     1.385241   -1.617616   -0.313525   -0.392300    0.500776   -0.476562
O     1.658912    1.966963    0.018932    0.392299    0.500778    0.476567
Si   -0.145367   -1.278539    0.243873   -0.416758    0.000000    0.699171
Si    0.145367    1.278540   -0.243875    0.416757    0.000001   -0.699172
Mg   -2.182887   -0.081715   -0.350805    0.000002   -0.234271   -0.000001
Mg    2.182887    0.081714    0.350805    0.000001    0.234269   -0.000001
O    -0.292292   -0.048094   -1.172724   -0.000002   -0.137882   -0.000001
O     0.292290    0.048094    1.172723    0.000000    0.137883   -0.000002
10
* Frequency(12)  376.5839
O    -1.647816   -1.952800   -0.005450   -0.392298   -0.500779   -0.476562
O    -1.396336    1.631780    0.300045    0.392298   -0.500777    0.476565
O     1.396336   -1.631780   -0.300046   -0.392300    0.500776   -0.476562
O     1.647816    1.952799    0.005453    0.392299    0.500778    0.476567
Si   -0.133579   -1.278539    0.224098   -0.416758    0.000000    0.699171
Si    0.133580    1.278540   -0.224099    0.416757    0.000001   -0.699172
Mg   -2.182887   -0.075089   -0.350804    0.000002   -0.234271   -0.000001
Mg    2.182887    0.075088    0.350805    0.000001    0.234269   -0.000001
O    -0.292292   -0.044194   -1.172724   -0.000002   -0.137882   -0.000001
O     0.292290    0.044194    1.172723    0.000000    0.137883   -0.000002
10
* Frequency(12)  376.5839
O    -1.623094   -1.921242    0.024582   -0.392298   -0.500779   -0.476562
O    -1.421058    1.663338    0.270013    0.392298   -0.500777    0.476565
O     1.421058   -1.663337   -0.270014   -0.392300    0.500776   -0.476562
O     1.623095    1.921241   -0.024579    0.392299    0.500778    0.476567
Si   -0.107316   -1.278539    0.180038   -0.416758    0.000000    0.699171
Si    0.107317    1.278539   -0.180039    0.416757    0.000001   -0.699172
Mg   -2.182887   -0.060326   -0.350804    0.000002   -0.234271   -0.000001
Mg    2.182887    0.060325    0.350805    0.000001    0.234269   -0.000001
O    -0.292292   -0.035505   -1.172724   -0.000002   -0.137882   -0.000001
O     0.292290    0.035505    1.172723    0.000000    0.137883   -0.000002
10
* Frequency(12)  376.5839
O    -1.587426   -1.875710    0.067911   -0.392298   -0.500779   -0.476562
O    -1.456726    1.708869    0.226683    0.392298   -0.500777    0.476565
O     1.456727   -1.708869   -0.226685   -0.392300    0.500776   -0.476562
O     1.587426    1.875710   -0.067909    0.392299    0.500778    0.476567
Si   -0.069424   -1.278539    0.116468   -0.416758    0.000000    0.699171
Si    0.069424    1.278539   -0.116469    0.416757    0.000001   -0.699172
Mg   -2.182887   -0.039025   -0.350804    0.000002   -0.234271   -0.000001
Mg    2.182887    0.039025    0.350806    0.000001    0.234269   -0.000001
O    -0.292291   -0.022969   -1.172724   -0.000002   -0.137882   -0.000001
O     0.292290    0.022969    1.172723    0.000000    0.137883   -0.000002
10
* Frequency(12)  376.5839
O    -1.544676   -1.821139    0.119844   -0.392298   -0.500779   -0.476562
O    -1.499476    1.763441    0.174750    0.392298   -0.500777    0.476565
O     1.499477   -1.763440   -0.174752   -0.392300    0.500776   -0.476562
O     1.544676    1.821138   -0.119842    0.392299    0.500778    0.476567
Si   -0.024009   -1.278539    0.040277   -0.416758    0.000000    0.699171
Si    0.024009    1.278539   -0.040278    0.416757    0.000001   -0.699172
Mg   -2.182887   -0.013496   -0.350804    0.000002   -0.234271   -0.000001
Mg    2.182887    0.013496    0.350806    0.000001    0.234269   -0.000001
O    -0.292291   -0.007943   -1.172724   -0.000002   -0.137882   -0.000001
O     0.292290    0.007943    1.172724    0.000000    0.137883   -0.000002
10
* Frequency(12)  376.5839
O    -1.499477   -1.763441    0.174752   -0.392298   -0.500779   -0.476562
O    -1.544675    1.821138    0.119842    0.392298   -0.500777    0.476565
O     1.544676   -1.821137   -0.119844   -0.392300    0.500776   -0.476562
O     1.499477    1.763440   -0.174750    0.392299    0.500778    0.476567
Si    0.024009   -1.278539   -0.040278   -0.416758    0.000000    0.699171
Si   -0.024008    1.278539    0.040278    0.416757    0.000001   -0.699172
Mg   -2.182887    0.013496   -0.350804    0.000002   -0.234271   -0.000001
Mg    2.182887   -0.013496    0.350806    0.000001    0.234269   -0.000001
O    -0.292291    0.007943   -1.172724   -0.000002   -0.137882   -0.000001
O     0.292290   -0.007943    1.172724    0.000000    0.137883   -0.000002
10
* Frequency(12)  376.5839
O    -1.456727   -1.708869    0.226684   -0.392298   -0.500779   -0.476562
O    -1.587425    1.875710    0.067909    0.392298   -0.500777    0.476565
O     1.587426   -1.875709   -0.067912   -0.392300    0.500776   -0.476562
O     1.456727    1.708869   -0.226683    0.392299    0.500778    0.476567
Si    0.069424   -1.278539   -0.116469   -0.416758    0.000000    0.699171
Si   -0.069424    1.278539    0.116469    0.416757    0.000001   -0.699172
Mg   -2.182887    0.039025   -0.350804    0.000002   -0.234271   -0.000001
Mg    2.182887   -0.039025    0.350806    0.000001    0.234269   -0.000001
O    -0.292291    0.022968   -1.172724   -0.000002   -0.137882   -0.000001
O     0.292290   -0.022969    1.172724    0.000000    0.137883   -0.000002
10
* Frequency(12)  376.5839
O    -1.421058   -1.663338    0.270014   -0.392298   -0.500779   -0.476562
O    -1.623094    1.921241    0.024579    0.392298   -0.500777    0.476565
O     1.623095   -1.921240   -0.024582   -0.392300    0.500776   -0.476562
O     1.421058    1.663337   -0.270014    0.392299    0.500778    0.476567
Si    0.107316   -1.278539   -0.180039   -0.416758    0.000000    0.699171
Si   -0.107316    1.278539    0.180039    0.416757    0.000001   -0.699172
Mg   -2.182888    0.060325   -0.350804    0.000002   -0.234271   -0.000001
Mg    2.182887   -0.060325    0.350806    0.000001    0.234269   -0.000001
O    -0.292291    0.035505   -1.172724   -0.000002   -0.137882   -0.000001
O     0.292290   -0.035506    1.172724    0.000000    0.137883   -0.000002
10
* Frequency(12)  376.5839
O    -1.396337   -1.631780    0.300046   -0.392298   -0.500779   -0.476562
O    -1.647815    1.952799   -0.005453    0.392298   -0.500777    0.476565
O     1.647817   -1.952798    0.005450   -0.392300    0.500776   -0.476562
O     1.396337    1.631779   -0.300046    0.392299    0.500778    0.476567
Si    0.133579   -1.278539   -0.224099   -0.416758    0.000000    0.699171
Si   -0.133579    1.278539    0.224099    0.416757    0.000001   -0.699172
Mg   -2.182888    0.075089   -0.350804    0.000002   -0.234271   -0.000001
Mg    2.182887   -0.075088    0.350806    0.000001    0.234269   -0.000001
O    -0.292291    0.044194   -1.172723   -0.000002   -0.137882   -0.000001
O     0.292290   -0.044195    1.172724    0.000000    0.137883   -0.000002
10
* Frequency(12)  376.5839
O    -1.385241   -1.617616    0.313525   -0.392298   -0.500779   -0.476562
O    -1.658911    1.966963   -0.018932    0.392298   -0.500777    0.476565
O     1.658912   -1.966962    0.018929   -0.392300    0.500776   -0.476562
O     1.385241    1.617616   -0.313525    0.392299    0.500778    0.476567
Si    0.145367   -1.278539   -0.243874   -0.416758    0.000000    0.699171
Si   -0.145367    1.278539    0.243874    0.416757    0.000001   -0.699172
Mg   -2.182888    0.081715   -0.350804    0.000002   -0.234271   -0.000001
Mg    2.182887   -0.081714    0.350806    0.000001    0.234269   -0.000001
O    -0.292291    0.048094   -1.172723   -0.000002   -0.137882   -0.000001
O     0.292290   -0.048095    1.172724    0.000000    0.137883   -0.000002
10
* Frequency(12)  376.5839
O    -1.388973   -1.622380    0.308991   -0.392298   -0.500779   -0.476562
O    -1.655179    1.962198   -0.014398    0.392298   -0.500777    0.476565
O     1.655180   -1.962197    0.014395   -0.392300    0.500776   -0.476562
O     1.388974    1.622380   -0.308990    0.392299    0.500778    0.476567
Si    0.141402   -1.278539   -0.237222   -0.416758    0.000000    0.699171
Si   -0.141401    1.278539    0.237222    0.416757    0.000001   -0.699172
Mg   -2.182888    0.079486   -0.350804    0.000002   -0.234271   -0.000001
Mg    2.182887   -0.079485    0.350806    0.000001    0.234269   -0.000001
O    -0.292291    0.046782   -1.172723   -0.000002   -0.137882   -0.000001
O     0.292290   -0.046783    1.172724    0.000000    0.137883   -0.000002
10
* Frequency(12)  376.5839
O    -1.407130   -1.645557    0.286934   -0.392298   -0.500779   -0.476562
O    -1.637022    1.939021    0.007658    0.392298   -0.500777    0.476565
O     1.637024   -1.939020   -0.007662   -0.392300    0.500776   -0.476562
O     1.407130    1.645557   -0.286934    0.392299    0.500778    0.476567
Si    0.122113   -1.278539   -0.204863   -0.416758    0.000000    0.699171
Si   -0.122113    1.278539    0.204863    0.416757    0.000001   -0.699172
Mg   -2.182888    0.068643   -0.350804    0.000002   -0.234271   -0.000001
Mg    2.182887   -0.068643    0.350806    0.000001    0.234269   -0.000001
O    -0.292291    0.040400   -1.172723   -0.000002   -0.137882   -0.000001
O     0.292290   -0.040401    1.172724    0.000000    0.137883   -0.000002
10
* Frequency(12)  376.5839
O    -1.437742   -1.684635    0.249747   -0.392298   -0.500779   -0.476562
O    -1.606410    1.899944    0.044846    0.392298   -0.500777    0.476565
O     1.606411   -1.899943   -0.044849   -0.392300    0.500776   -0.476562
O     1.437742    1.684635   -0.249746    0.392299    0.500778    0.476567
Si    0.089592   -1.278539   -0.150304   -0.416758    0.000000    0.699171
Si   -0.089592    1.278539    0.150304    0.416757    0.000001   -0.699172
Mg   -2.182887    0.050362   -0.350804    0.000002   -0.234271   -0.000001
Mg    2.182887   -0.050362    0.350806    0.000001    0.234269   -0.000001
O    -0.292291    0.029641   -1.172724   -0.000002   -0.137882   -0.000001
O     0.292290   -0.029642    1.172724    0.000000    0.137883   -0.000002
10
* Frequency(12)  376.5839
O    -1.477494   -1.735379    0.201457   -0.392298   -0.500779   -0.476562
O    -1.566658    1.849200    0.093137    0.392298   -0.500777    0.476565
O     1.566659   -1.849199   -0.093139   -0.392300    0.500776   -0.476562
O     1.477494    1.735378   -0.201455    0.392299    0.500778    0.476567
Si    0.047362   -1.278539   -0.079458   -0.416758    0.000000    0.699171
Si   -0.047362    1.278539    0.079457    0.416757    0.000001   -0.699172
Mg   -2.182887    0.026624   -0.350804    0.000002   -0.234271   -0.000001
Mg    2.182887   -0.026623    0.350806    0.000001    0.234269   -0.000001
O    -0.292291    0.015669   -1.172724   -0.000002   -0.137882   -0.000001
O     0.292290   -0.015670    1.172724    0.000000    0.137883   -0.000002
10
* Frequency(12)  376.5839
O    -1.522076   -1.792290    0.147298   -0.392298   -0.500779   -0.476562
O    -1.522076    1.792290    0.147296    0.392298   -0.500777    0.476565
O     1.522077   -1.792289   -0.147298   -0.392300    0.500776   -0.476562
O     1.522077    1.792289   -0.147296    0.392299    0.500778    0.476567
Si   -0.000000   -1.278539   -0.000001   -0.416758    0.000000    0.699171
Si    0.000000    1.278539   -0.000000    0.416757    0.000001   -0.699172
Mg   -2.182887   -0.000000   -0.350804    0.000002   -0.234271   -0.000001
Mg    2.182887    0.000000    0.350806    0.000001    0.234269   -0.000001
O    -0.292291   -0.000000   -1.172724   -0.000002   -0.137882   -0.000001
O     0.292290   -0.000000    1.172724    0.000000    0.137883   -0.000002
