10
* (null), Energy   -1000.0000000
O    -1.522076   -1.792290    0.147298   -0.425839    0.253840   -0.125575
O    -1.522076    1.792290    0.147296    0.425839    0.253843    0.125579
O     1.522077   -1.792289   -0.147298    0.425837    0.253841    0.125576
O     1.522077    1.792289   -0.147296   -0.425839    0.253846   -0.125576
Si   -0.000000   -1.278539   -0.000001   -0.000001   -0.701888    0.000000
Si    0.000000    1.278539   -0.000000    0.000000   -0.701884   -0.000001
Mg   -2.182887   -0.000000   -0.350804    0.000004    0.832306   -0.000001
Mg    2.182887    0.000000    0.350806   -0.000002    0.832306    0.000000
O    -0.292291   -0.000000   -1.172724   -0.000002   -0.539939    0.000000
O     0.292290   -0.000000    1.172724    0.000001   -0.539939   -0.000002
10
* Frequency(11)  338.2184
O    -1.570471   -1.763442    0.133027   -0.425839    0.253840   -0.125575
O    -1.473681    1.821138    0.161567    0.425839    0.253843    0.125579
O     1.570471   -1.763441   -0.133027    0.425837    0.253841    0.125576
O     1.473682    1.821138   -0.161567   -0.425839    0.253846   -0.125576
Si   -0.000000   -1.358305   -0.000001   -0.000001   -0.701888    0.000000
Si    0.000000    1.198774   -0.000000    0.000000   -0.701884   -0.000001
Mg   -2.182887    0.094587   -0.350804    0.000004    0.832306   -0.000001
Mg    2.182887    0.094587    0.350806   -0.000002    0.832306    0.000000
O    -0.292291   -0.061362   -1.172724   -0.000002   -0.539939    0.000000
O     0.292290   -0.061361    1.172723    0.000001   -0.539939   -0.000002
10
* Frequency(11)  338.2184
O    -1.613621   -1.737721    0.120302   -0.425839    0.253840   -0.125575
O    -1.430531    1.846860    0.174292    0.425839    0.253843    0.125579
O     1.613621   -1.737719   -0.120302    0.425837    0.253841    0.125576
O     1.430532    1.846860   -0.174292   -0.425839    0.253846   -0.125576
Si   -0.000000   -1.429427   -0.000001   -0.000001   -0.701888    0.000000
Si    0.000000    1.127652   -0.000000    0.000000   -0.701884   -0.000001
Mg   -2.182886    0.178925   -0.350804    0.000004    0.832306   -0.000001
Mg    2.182887    0.178925    0.350806   -0.000002    0.832306    0.000000
O    -0.292292   -0.116073   -1.172724   -0.000002   -0.539939    0.000000
O     0.292290   -0.116073    1.172723    0.000001   -0.539939   -0.000002
10
* Frequency(11)  338.2184
O    -1.646851   -1.717913    0.110503   -0.425839    0.253840   -0.125575
O    -1.397301    1.866668    0.184091    0.425839    0.253843    0.125579
O     1.646850   -1.717911   -0.110503    0.425837    0.253841    0.125576
O     1.397302    1.866668   -0.184091   -0.425839    0.253846   -0.125576
Si   -0.000000   -1.484198   -0.000000   -0.000001   -0.701888    0.000000
Si    0.000000    1.072881   -0.000000    0.000000   -0.701884   -0.000001
Mg   -2.182886    0.243873   -0.350804    0.000004    0.832306   -0.000001
Mg    2.182886    0.243873    0.350806   -0.000002    0.832306    0.000000
O    -0.292292   -0.158207   -1.172724   -0.000002   -0.539939    0.000000
O     0.292290   -0.158207    1.172723    0.000001   -0.539939   -0.000002
10
* Frequency(11)  338.2184
O    -1.666559   -1.706164    0.104691   -0.425839    0.253840   -0.125575
O    -1.377593    1.878416    0.189903    0.425839    0.253843    0.125579
O     1.666559   -1.706163   -0.104691    0.425837    0.253841    0.125576
O     1.377594    1.878417   -0.189903   -0.425839    0.253846   -0.125576
Si   -0.000000   -1.516683   -0.000000   -0.000001   -0.701888    0.000000
Si    0.000000    1.040397   -0.000000    0.000000   -0.701884   -0.000001
Mg   -2.182886    0.282393   -0.350804    0.000004    0.832306   -0.000001
Mg    2.182886    0.282393    0.350806   -0.000002    0.832306    0.000000
O    -0.292292   -0.183196   -1.172724   -0.000002   -0.539939    0.000000
O     0.292290   -0.183196    1.172723    0.000001   -0.539939   -0.000002
10
* Frequency(11)  338.2184
O    -1.670611   -1.703749    0.103497   -0.425839    0.253840   -0.125575
O    -1.373541    1.880831    0.191098    0.425839    0.253843    0.125579
O     1.670611   -1.703748   -0.103497    0.425837    0.253841    0.125576
O     1.373542    1.880832   -0.191097   -0.425839    0.253846   -0.125576
Si   -0.000000   -1.523361   -0.000000   -0.000001   -0.701888    0.000000
Si    0.000000    1.033719   -0.000000    0.000000   -0.701884   -0.000001
Mg   -2.182886    0.290312   -0.350804    0.000004    0.832306   -0.000001
Mg    2.182886    0.290312    0.350806   -0.000002    0.832306    0.000000
O    -0.292292   -0.188333   -1.172724   -0.000002   -0.539939    0.000000
O     0.292290   -0.188333    1.172723    0.000001   -0.539939   -0.000002
10
* Frequency(11)  338.2184
O    -1.658567   -1.710929    0.107048   -0.425839    0.253840   -0.125575
O    -1.385586    1.873652    0.187546    0.425839    0.253843    0.125579
O     1.658566   -1.710927   -0.107048    0.425837    0.253841    0.125576
O     1.385586    1.873652   -0.187546   -0.425839    0.253846   -0.125576
Si   -0.000000   -1.503509   -0.000000   -0.000001   -0.701888    0.000000
Si    0.000000    1.053571   -0.000000    0.000000   -0.701884   -0.000001
Mg   -2.182886    0.266771   -0.350804    0.000004    0.832306   -0.000001
Mg    2.182886    0.266771    0.350806   -0.000002    0.832306    0.000000
O    -0.292292   -0.173062   -1.172724   -0.000002   -0.539939    0.000000
O     0.292290   -0.173062    1.172723    0.000001   -0.539939   -0.000002
10
* Frequency(11)  338.2184
O    -1.631731   -1.726925    0.114962   -0.425839    0.253840   -0.125575
O    -1.412421    1.857655    0.179633    0.425839    0.253843    0.125579
O     1.631731   -1.726924   -0.114962    0.425837    0.253841    0.125576
O     1.412422    1.857656   -0.179632   -0.425839    0.253846   -0.125576
Si   -0.000000   -1.459278   -0.000000   -0.000001   -0.701888    0.000000
Si    0.000000    1.097802   -0.000000    0.000000   -0.701884   -0.000001
Mg   -2.182886    0.214322   -0.350804    0.000004    0.832306   -0.000001
Mg    2.182887    0.214322    0.350806   -0.000002    0.832306    0.000000
O    -0.292292   -0.139036   -1.172724   -0.000002   -0.539939    0.000000
O     0.292290   -0.139036    1.172723    0.000001   -0.539939   -0.000002
10
* Frequency(11)  338.2184
O    -1.593013   -1.750005    0.126379   -0.425839    0.253840   -0.125575
O    -1.451139    1.834575    0.168215    0.425839    0.253843    0.125579
O     1.593013   -1.750003   -0.126379    0.425837    0.253841    0.125576
O     1.451140    1.834575   -0.168215   -0.425839    0.253846   -0.125576
Si   -0.000000   -1.395461   -0.000001   -0.000001   -0.701888    0.000000
Si    0.000000    1.161618   -0.000000    0.000000   -0.701884   -0.000001
Mg   -2.182887    0.138647   -0.350804    0.000004    0.832306   -0.000001
Mg    2.182887    0.138647    0.350806   -0.000002    0.832306    0.000000
O    -0.292291   -0.089944   -1.172724   -0.000002   -0.539939    0.000000
O     0.292290   -0.089944    1.172723    0.000001   -0.539939   -0.000002
10
* Frequency(11)  338.2184
O    -1.546608   -1.777667    0.140064   -0.425839    0.253840   -0.125575
O    -1.497544    1.806913    0.154530    0.425839    0.253843    0.125579
O     1.546608   -1.777665   -0.140064    0.425837    0.253841    0.125576
O     1.497545    1.806913   -0.154530   -0.425839    0.253846   -0.125576
Si   -0.000000   -1.318974   -0.000001   -0.000001   -0.701888    0.000000
Si    0.000000    1.238105   -0.000000    0.000000   -0.701884   -0.000001
Mg   -2.182887    0.047948   -0.350804    0.000004    0.832306   -0.000001
Mg    2.182887    0.047948    0.350806   -0.000002    0.832306    0.000000
O    -0.292291   -0.031105   -1.172724   -0.000002   -0.539939    0.000000
O     0.292290   -0.031105    1.172724    0.000001   -0.539939   -0.000002
10
* Frequency(11)  338.2184
O    -1.497545   -1.806913    0.154532   -0.425839    0.253840   -0.125575
O    -1.546608    1.777666    0.140061    0.425839    0.253843    0.125579
O     1.497545   -1.806912   -0.154532    0.425837    0.253841    0.125576
O     1.546608    1.777666   -0.140062   -0.425839    0.253846   -0.125576
Si    0.000000   -1.238105   -0.000001   -0.000001   -0.701888    0.000000
Si    0.000000    1.318973   -0.000000    0.000000   -0.701884   -0.000001
Mg   -2.182887   -0.047948   -0.350804    0.000004    0.832306   -0.000001
Mg    2.182887   -0.047947    0.350806   -0.000002    0.832306    0.000000
O    -0.292291    0.031105   -1.172724   -0.000002   -0.539939    0.000000
O     0.292290    0.031105    1.172724    0.000001   -0.539939   -0.000002
10
* Frequency(11)  338.2184
O    -1.451139   -1.834575    0.168216   -0.425839    0.253840   -0.125575
O    -1.593013    1.750004    0.126377    0.425839    0.253843    0.125579
O     1.451140   -1.834574   -0.168217    0.425837    0.253841    0.125576
O     1.593014    1.750003   -0.126378   -0.425839    0.253846   -0.125576
Si    0.000000   -1.161618   -0.000001   -0.000001   -0.701888    0.000000
Si    0.000000    1.395460   -0.000000    0.000000   -0.701884   -0.000001
Mg   -2.182888   -0.138647   -0.350804    0.000004    0.832306   -0.000001
Mg    2.182887   -0.138647    0.350806   -0.000002    0.832306    0.000000
O    -0.292291    0.089944   -1.172724   -0.000002   -0.539939    0.000000
O     0.292290    0.089944    1.172724    0.000001   -0.539939   -0.000002
10
* Frequency(11)  338.2184
O    -1.412421   -1.857654    0.179634   -0.425839    0.253840   -0.125575
O    -1.631731    1.726924    0.114959    0.425839    0.253843    0.125579
O     1.412422   -1.857654   -0.179634    0.425837    0.253841    0.125576
O     1.631732    1.726923   -0.114960   -0.425839    0.253846   -0.125576
Si    0.000000   -1.097801   -0.000001   -0.000001   -0.701888    0.000000
Si    0.000000    1.459277    0.000000    0.000000   -0.701884   -0.000001
Mg   -2.182888   -0.214322   -0.350804    0.000004    0.832306   -0.000001
Mg    2.182888   -0.214321    0.350806   -0.000002    0.832306    0.000000
O    -0.292291    0.139036   -1.172724   -0.000002   -0.539939    0.000000
O     0.292290    0.139036    1.172724    0.000001   -0.539939   -0.000002
10
* Frequency(11)  338.2184
O    -1.385586   -1.873651    0.187547   -0.425839    0.253840   -0.125575
O    -1.658566    1.710928    0.107045    0.425839    0.253843    0.125579
O     1.385587   -1.873650   -0.187548    0.425837    0.253841    0.125576
O     1.658567    1.710926   -0.107047   -0.425839    0.253846   -0.125576
Si    0.000000   -1.053570   -0.000001   -0.000001   -0.701888    0.000000
Si    0.000000    1.503508    0.000000    0.000000   -0.701884   -0.000001
Mg   -2.182888   -0.266771   -0.350804    0.000004    0.832306   -0.000001
Mg    2.182888   -0.266771    0.350806   -0.000002    0.832306    0.000000
O    -0.292291    0.173061   -1.172724   -0.000002   -0.539939    0.000000
O     0.292290    0.173061    1.172724    0.000001   -0.539939   -0.000002
10
* Frequency(11)  338.2184
O    -1.373542   -1.880830    0.191099   -0.425839    0.253840   -0.125575
O    -1.670611    1.703748    0.103493    0.425839    0.253843    0.125579
O     1.373542   -1.880830   -0.191100    0.425837    0.253841    0.125576
O     1.670611    1.703747   -0.103495   -0.425839    0.253846   -0.125576
Si    0.000000   -1.033718   -0.000001   -0.000001   -0.701888    0.000000
Si    0.000000    1.523360    0.000000    0.000000   -0.701884   -0.000001
Mg   -2.182888   -0.290312   -0.350804    0.000004    0.832306   -0.000001
Mg    2.182888   -0.290312    0.350806   -0.000002    0.832306    0.000000
O    -0.292291    0.188333   -1.172724   -0.000002   -0.539939    0.000000
O     0.292290    0.188333    1.172724    0.000001   -0.539939   -0.000002
10
* Frequency(11)  338.2184
O    -1.377593   -1.878415    0.189904   -0.425839    0.253840   -0.125575
O    -1.666559    1.706163    0.104688    0.425839    0.253843    0.125579
O     1.377594   -1.878414   -0.189905    0.425837    0.253841    0.125576
O     1.666560    1.706162   -0.104690   -0.425839    0.253846   -0.125576
Si    0.000000   -1.040396   -0.000001   -0.000001   -0.701888    0.000000
Si    0.000000    1.516682    0.000000    0.000000   -0.701884   -0.000001
Mg   -2.182888   -0.282393   -0.350804    0.000004    0.832306   -0.000001
Mg    2.182888   -0.282393    0.350806   -0.000002    0.832306    0.000000
O    -0.292291    0.183196   -1.172724   -0.000002   -0.539939    0.000000
O     0.292290    0.183196    1.172724    0.000001   -0.539939   -0.000002
10
* Frequency(11)  338.2184
O    -1.397302   -1.866667    0.184093   -0.425839    0.253840   -0.125575
O    -1.646850    1.717911    0.110500    0.425839    0.253843    0.125579
O     1.397303   -1.866666   -0.184093    0.425837    0.253841    0.125576
O     1.646851    1.717910   -0.110501   -0.425839    0.253846   -0.125576
Si    0.000000   -1.072880   -0.000001   -0.000001   -0.701888    0.000000
Si    0.000000    1.484197    0.000000    0.000000   -0.701884   -0.000001
Mg   -2.182888   -0.243873   -0.350804    0.000004    0.832306   -0.000001
Mg    2.182888   -0.243872    0.350806   -0.000002    0.832306    0.000000
O    -0.292291    0.158206   -1.172724   -0.000002   -0.539939    0.000000
O     0.292290    0.158206    1.172724    0.000001   -0.539939   -0.000002
10
* Frequency(11)  338.2184
O    -1.430532   -1.846859    0.174293   -0.425839    0.253840   -0.125575
O    -1.613620    1.737720    0.120300    0.425839    0.253843    0.125579
O     1.430532   -1.846858   -0.174294    0.425837    0.253841    0.125576
O     1.613621    1.737719   -0.120301   -0.425839    0.253846   -0.125576
Si    0.000000   -1.127651   -0.000001   -0.000001   -0.701888    0.000000
Si    0.000000    1.429426    0.000000    0.000000   -0.701884   -0.000001
Mg   -2.182888   -0.178925   -0.350804    0.000004    0.832306   -0.000001
Mg    2.182888   -0.178924    0.350806   -0.000002    0.832306    0.000000
O    -0.292291    0.116073   -1.172724   -0.000002   -0.539939    0.000000
O     0.292290    0.116073    1.172724    0.000001   -0.539939   -0.000002
10
* Frequency(11)  338.2184
O    -1.473682   -1.821137    0.161569   -0.425839    0.253840   -0.125575
O    -1.570470    1.763442    0.133024    0.425839    0.253843    0.125579
O     1.473682   -1.821136   -0.161569    0.425837    0.253841    0.125576
O     1.570471    1.763441   -0.133025   -0.425839    0.253846   -0.125576
Si    0.000000   -1.198773   -0.000001   -0.000001   -0.701888    0.000000
Si    0.000000    1.358305   -0.000000    0.000000   -0.701884   -0.000001
Mg   -2.182888   -0.094587   -0.350804    0.000004    0.832306   -0.000001
Mg    2.182887   -0.094587    0.350806   -0.000002    0.832306    0.000000
O    -0.292291    0.061361   -1.172724   -0.000002   -0.539939    0.000000
O     0.292290    0.061361    1.172724    0.000001   -0.539939   -0.000002
10
* Frequency(11)  338.2184
O    -1.522076   -1.792290    0.147298   -0.425839    0.253840   -0.125575
O    -1.522076    1.792290    0.147296    0.425839    0.253843    0.125579
O     1.522077   -1.792289   -0.147298    0.425837    0.253841    0.125576
O     1.522077    1.792289   -0.147296   -0.425839    0.253846   -0.125576
Si   -0.000000   -1.278539   -0.000001   -0.000001   -0.701888    0.000000
Si    0.000000    1.278539   -0.000000    0.000000   -0.701884   -0.000001
Mg   -2.182887   -0.000000   -0.350804    0.000004    0.832306   -0.000001
Mg    2.182887    0.000000    0.350806   -0.000002    0.832306    0.000000
O    -0.292291   -0.000000   -1.172724   -0.000002   -0.539939    0.000000
O     0.292290   -0.000000    1.172724    0.000001   -0.539939   -0.000002
