10
* (null), Energy   -1000.0000000
O    -1.522076   -1.792290    0.147298   -0.199782    0.094639    0.042420
O    -1.522076    1.792290    0.147296    0.199764    0.094650   -0.042404
O     1.522077   -1.792289   -0.147298    0.199778    0.094644   -0.042404
O     1.522077    1.792289   -0.147296   -0.199769    0.094645    0.042419
Si   -0.000000   -1.278539   -0.000001   -0.000003   -0.601948   -0.000022
Si    0.000000    1.278539   -0.000000   -0.000003   -0.601933   -0.000023
Mg   -2.182887   -0.000000   -0.350804    0.000003   -0.230673   -0.000004
Mg    2.182887    0.000000    0.350806    0.000003   -0.230673   -0.000005
O    -0.292291   -0.000000   -1.172724   -0.000002    1.217838    0.000000
O     0.292290   -0.000000    1.172724    0.000010    1.217835    0.000060
10
* Frequency(24)  757.3602
O    -1.544780   -1.781535    0.152119   -0.199782    0.094639    0.042420
O    -1.499374    1.803046    0.142477    0.199764    0.094650   -0.042404
O     1.544780   -1.781533   -0.152117    0.199778    0.094644   -0.042404
O     1.499374    1.803045   -0.142475   -0.199769    0.094645    0.042419
Si   -0.000000   -1.346948   -0.000003   -0.000003   -0.601948   -0.000022
Si   -0.000000    1.210133   -0.000003   -0.000003   -0.601933   -0.000023
Mg   -2.182887   -0.026215   -0.350805    0.000003   -0.230673   -0.000004
Mg    2.182887   -0.026215    0.350805    0.000003   -0.230673   -0.000005
O    -0.292291    0.138401   -1.172724   -0.000002    1.217838    0.000000
O     0.292291    0.138400    1.172730    0.000010    1.217835    0.000060
10
* Frequency(24)  757.3602
O    -1.565024   -1.771945    0.156417   -0.199782    0.094639    0.042420
O    -1.479132    1.812637    0.138180    0.199764    0.094650   -0.042404
O     1.565024   -1.771943   -0.156414    0.199778    0.094644   -0.042404
O     1.479131    1.812636   -0.138177   -0.199769    0.094645    0.042419
Si   -0.000001   -1.407943   -0.000005   -0.000003   -0.601948   -0.000022
Si   -0.000000    1.149139   -0.000005   -0.000003   -0.601933   -0.000023
Mg   -2.182887   -0.049589   -0.350805    0.000003   -0.230673   -0.000004
Mg    2.182888   -0.049589    0.350805    0.000003   -0.230673   -0.000005
O    -0.292292    0.261804   -1.172724   -0.000002    1.217838    0.000000
O     0.292292    0.261803    1.172736    0.000010    1.217835    0.000060
10
* Frequency(24)  757.3602
O    -1.580614   -1.764560    0.159727   -0.199782    0.094639    0.042420
O    -1.463543    1.820023    0.134871    0.199764    0.094650   -0.042404
O     1.580613   -1.764557   -0.159723    0.199778    0.094644   -0.042404
O     1.463543    1.820021   -0.134867   -0.199769    0.094645    0.042419
Si   -0.000001   -1.454915   -0.000007   -0.000003   -0.601948   -0.000022
Si   -0.000001    1.102168   -0.000007   -0.000003   -0.601933   -0.000023
Mg   -2.182886   -0.067589   -0.350805    0.000003   -0.230673   -0.000004
Mg    2.182888   -0.067589    0.350804    0.000003   -0.230673   -0.000005
O    -0.292292    0.356836   -1.172724   -0.000002    1.217838    0.000000
O     0.292293    0.356836    1.172741    0.000010    1.217835    0.000060
10
* Frequency(24)  757.3602
O    -1.589860   -1.760180    0.161691   -0.199782    0.094639    0.042420
O    -1.454298    1.824404    0.132908    0.199764    0.094650   -0.042404
O     1.589859   -1.760177   -0.161685    0.199778    0.094644   -0.042404
O     1.454297    1.824402   -0.132904   -0.199769    0.094645    0.042419
Si   -0.000001   -1.482774   -0.000008   -0.000003   -0.601948   -0.000022
Si   -0.000001    1.074309   -0.000008   -0.000003   -0.601933   -0.000023
Mg   -2.182886   -0.078265   -0.350805    0.000003   -0.230673   -0.000004
Mg    2.182888   -0.078265    0.350804    0.000003   -0.230673   -0.000005
O    -0.292292    0.413200   -1.172724   -0.000002    1.217838    0.000000
O     0.292294    0.413199    1.172744    0.000010    1.217835    0.000060
10
* Frequency(24)  757.3602
O    -1.591761   -1.759279    0.162094   -0.199782    0.094639    0.042420
O    -1.452397    1.825304    0.132505    0.199764    0.094650   -0.042404
O     1.591760   -1.759276   -0.162089    0.199778    0.094644   -0.042404
O     1.452396    1.825302   -0.132500   -0.199769    0.094645    0.042419
Si   -0.000001   -1.488501   -0.000008   -0.000003   -0.601948   -0.000022
Si   -0.000001    1.068582   -0.000008   -0.000003   -0.601933   -0.000023
Mg   -2.182886   -0.080460   -0.350805    0.000003   -0.230673   -0.000004
Mg    2.182888   -0.080460    0.350804    0.000003   -0.230673   -0.000005
O    -0.292292    0.424787   -1.172724   -0.000002    1.217838    0.000000
O     0.292294    0.424786    1.172744    0.000010    1.217835    0.000060
10
* Frequency(24)  757.3602
O    -1.586110   -1.761956    0.160894   -0.199782    0.094639    0.042420
O    -1.458047    1.822627    0.133704    0.199764    0.094650   -0.042404
O     1.586110   -1.761953   -0.160889    0.199778    0.094644   -0.042404
O     1.458046    1.822625   -0.133700   -0.199769    0.094645    0.042419
Si   -0.000001   -1.471476   -0.000007   -0.000003   -0.601948   -0.000022
Si   -0.000001    1.085607   -0.000007   -0.000003   -0.601933   -0.000023
Mg   -2.182886   -0.073936   -0.350805    0.000003   -0.230673   -0.000004
Mg    2.182888   -0.073935    0.350804    0.000003   -0.230673   -0.000005
O    -0.292292    0.390342   -1.172724   -0.000002    1.217838    0.000000
O     0.292293    0.390341    1.172743    0.000010    1.217835    0.000060
10
* Frequency(24)  757.3602
O    -1.573521   -1.767920    0.158221   -0.199782    0.094639    0.042420
O    -1.470636    1.816662    0.136377    0.199764    0.094650   -0.042404
O     1.573520   -1.767917   -0.158217    0.199778    0.094644   -0.042404
O     1.470635    1.816661   -0.136373   -0.199769    0.094645    0.042419
Si   -0.000001   -1.433543   -0.000006   -0.000003   -0.601948   -0.000022
Si   -0.000000    1.123539   -0.000006   -0.000003   -0.601933   -0.000023
Mg   -2.182886   -0.059399   -0.350805    0.000003   -0.230673   -0.000004
Mg    2.182888   -0.059399    0.350804    0.000003   -0.230673   -0.000005
O    -0.292292    0.313597   -1.172724   -0.000002    1.217838    0.000000
O     0.292293    0.313596    1.172739    0.000010    1.217835    0.000060
10
* Frequency(24)  757.3602
O    -1.555356   -1.776525    0.154364   -0.199782    0.094639    0.042420
O    -1.488799    1.808057    0.140232    0.199764    0.094650   -0.042404
O     1.555356   -1.776523   -0.154362    0.199778    0.094644   -0.042404
O     1.488799    1.808055   -0.140230   -0.199769    0.094645    0.042419
Si   -0.000000   -1.378813   -0.000004   -0.000003   -0.601948   -0.000022
Si   -0.000000    1.178268   -0.000004   -0.000003   -0.601933   -0.000023
Mg   -2.182887   -0.038426   -0.350805    0.000003   -0.230673   -0.000004
Mg    2.182888   -0.038426    0.350805    0.000003   -0.230673   -0.000005
O    -0.292291    0.202869   -1.172724   -0.000002    1.217838    0.000000
O     0.292292    0.202869    1.172734    0.000010    1.217835    0.000060
10
* Frequency(24)  757.3602
O    -1.533585   -1.786838    0.149742   -0.199782    0.094639    0.042420
O    -1.510568    1.797742    0.144853    0.199764    0.094650   -0.042404
O     1.533585   -1.786836   -0.149741    0.199778    0.094644   -0.042404
O     1.510568    1.797742   -0.144852   -0.199769    0.094645    0.042419
Si   -0.000000   -1.313216   -0.000002   -0.000003   -0.601948   -0.000022
Si    0.000000    1.243863   -0.000001   -0.000003   -0.601933   -0.000023
Mg   -2.182887   -0.013289   -0.350804    0.000003   -0.230673   -0.000004
Mg    2.182887   -0.013289    0.350805    0.000003   -0.230673   -0.000005
O    -0.292291    0.070157   -1.172724   -0.000002    1.217838    0.000000
O     0.292291    0.070157    1.172727    0.000010    1.217835    0.000060
10
* Frequency(24)  757.3602
O    -1.510567   -1.797742    0.144854   -0.199782    0.094639    0.042420
O    -1.533584    1.786837    0.149739    0.199764    0.094650   -0.042404
O     1.510568   -1.797741   -0.144855    0.199778    0.094644   -0.042404
O     1.533585    1.786837   -0.149740   -0.199769    0.094645    0.042419
Si    0.000000   -1.243862    0.000001   -0.000003   -0.601948   -0.000022
Si    0.000000    1.313215    0.000001   -0.000003   -0.601933   -0.000023
Mg   -2.182887    0.013289   -0.350804    0.000003   -0.230673   -0.000004
Mg    2.182887    0.013289    0.350806    0.000003   -0.230673   -0.000005
O    -0.292291   -0.070158   -1.172724   -0.000002    1.217838    0.000000
O     0.292289   -0.070157    1.172720    0.000010    1.217835    0.000060
10
* Frequency(24)  757.3602
O    -1.488796   -1.808055    0.140231   -0.199782    0.094639    0.042420
O    -1.555353    1.776523    0.154359    0.199764    0.094650   -0.042404
O     1.488797   -1.808055   -0.140234    0.199778    0.094644   -0.042404
O     1.555355    1.776523   -0.154362   -0.199769    0.094645    0.042419
Si    0.000000   -1.178266    0.000003   -0.000003   -0.601948   -0.000022
Si    0.000001    1.378810    0.000004   -0.000003   -0.601933   -0.000023
Mg   -2.182888    0.038426   -0.350804    0.000003   -0.230673   -0.000004
Mg    2.182887    0.038426    0.350806    0.000003   -0.230673   -0.000005
O    -0.292291   -0.202870   -1.172724   -0.000002    1.217838    0.000000
O     0.292288   -0.202869    1.172714    0.000010    1.217835    0.000060
10
* Frequency(24)  757.3602
O    -1.470632   -1.816660    0.136375   -0.199782    0.094639    0.042420
O    -1.573516    1.767917    0.158215    0.199764    0.094650   -0.042404
O     1.470633   -1.816660   -0.136379    0.199778    0.094644   -0.042404
O     1.573518    1.767918   -0.158219   -0.199769    0.094645    0.042419
Si    0.000001   -1.123536    0.000005   -0.000003   -0.601948   -0.000022
Si    0.000001    1.433539    0.000006   -0.000003   -0.601933   -0.000023
Mg   -2.182888    0.059399   -0.350803    0.000003   -0.230673   -0.000004
Mg    2.182886    0.059399    0.350807    0.000003   -0.230673   -0.000005
O    -0.292291   -0.313598   -1.172724   -0.000002    1.217838    0.000000
O     0.292287   -0.313597    1.172708    0.000010    1.217835    0.000060
10
* Frequency(24)  757.3602
O    -1.458042   -1.822624    0.133701   -0.199782    0.094639    0.042420
O    -1.586104    1.761952    0.160887    0.199764    0.094650   -0.042404
O     1.458043   -1.822624   -0.133707    0.199778    0.094644   -0.042404
O     1.586107    1.761953   -0.160892   -0.199769    0.094645    0.042419
Si    0.000001   -1.085603    0.000006   -0.000003   -0.601948   -0.000022
Si    0.000001    1.471471    0.000007   -0.000003   -0.601933   -0.000023
Mg   -2.182888    0.073935   -0.350803    0.000003   -0.230673   -0.000004
Mg    2.182886    0.073936    0.350807    0.000003   -0.230673   -0.000005
O    -0.292291   -0.390343   -1.172724   -0.000002    1.217838    0.000000
O     0.292287   -0.390342    1.172705    0.000010    1.217835    0.000060
10
* Frequency(24)  757.3602
O    -1.452392   -1.825300    0.132502   -0.199782    0.094639    0.042420
O    -1.591755    1.759275    0.162086    0.199764    0.094650   -0.042404
O     1.452393   -1.825301   -0.132507    0.199778    0.094644   -0.042404
O     1.591757    1.759276   -0.162092   -0.199769    0.094645    0.042419
Si    0.000001   -1.068577    0.000007   -0.000003   -0.601948   -0.000022
Si    0.000001    1.488496    0.000008   -0.000003   -0.601933   -0.000023
Mg   -2.182888    0.080460   -0.350803    0.000003   -0.230673   -0.000004
Mg    2.182886    0.080460    0.350807    0.000003   -0.230673   -0.000005
O    -0.292291   -0.424788   -1.172724   -0.000002    1.217838    0.000000
O     0.292286   -0.424787    1.172703    0.000010    1.217835    0.000060
10
* Frequency(24)  757.3602
O    -1.454292   -1.824400    0.132905   -0.199782    0.094639    0.042420
O    -1.589854    1.760176    0.161683    0.199764    0.094650   -0.042404
O     1.454294   -1.824401   -0.132911    0.199778    0.094644   -0.042404
O     1.589856    1.760177   -0.161688   -0.199769    0.094645    0.042419
Si    0.000001   -1.074304    0.000007   -0.000003   -0.601948   -0.000022
Si    0.000001    1.482769    0.000007   -0.000003   -0.601933   -0.000023
Mg   -2.182888    0.078265   -0.350803    0.000003   -0.230673   -0.000004
Mg    2.182886    0.078265    0.350807    0.000003   -0.230673   -0.000005
O    -0.292291   -0.413201   -1.172724   -0.000002    1.217838    0.000000
O     0.292287   -0.413200    1.172703    0.000010    1.217835    0.000060
10
* Frequency(24)  757.3602
O    -1.463539   -1.820020    0.134868   -0.199782    0.094639    0.042420
O    -1.580608    1.764556    0.159720    0.199764    0.094650   -0.042404
O     1.463540   -1.820020   -0.134873    0.199778    0.094644   -0.042404
O     1.580611    1.764557   -0.159725   -0.199769    0.094645    0.042419
Si    0.000001   -1.102164    0.000006   -0.000003   -0.601948   -0.000022
Si    0.000001    1.454911    0.000006   -0.000003   -0.601933   -0.000023
Mg   -2.182888    0.067589   -0.350803    0.000003   -0.230673   -0.000004
Mg    2.182886    0.067589    0.350807    0.000003   -0.230673   -0.000005
O    -0.292291   -0.356837   -1.172724   -0.000002    1.217838    0.000000
O     0.292287   -0.356836    1.172706    0.000010    1.217835    0.000060
10
* Frequency(24)  757.3602
O    -1.479128   -1.812635    0.138179   -0.199782    0.094639    0.042420
O    -1.565020    1.771942    0.156411    0.199764    0.094650   -0.042404
O     1.479129   -1.812635   -0.138182    0.199778    0.094644   -0.042404
O     1.565022    1.771943   -0.156415   -0.199769    0.094645    0.042419
Si    0.000001   -1.149136    0.000004   -0.000003   -0.601948   -0.000022
Si    0.000001    1.407939    0.000005   -0.000003   -0.601933   -0.000023
Mg   -2.182888    0.049589   -0.350803    0.000003   -0.230673   -0.000004
Mg    2.182886    0.049589    0.350807    0.000003   -0.230673   -0.000005
O    -0.292291   -0.261804   -1.172724   -0.000002    1.217838    0.000000
O     0.292288   -0.261804    1.172711    0.000010    1.217835    0.000060
10
* Frequency(24)  757.3602
O    -1.499372   -1.803045    0.142477   -0.199782    0.094639    0.042420
O    -1.544778    1.781533    0.152115    0.199764    0.094650   -0.042404
O     1.499373   -1.803045   -0.142479    0.199778    0.094644   -0.042404
O     1.544779    1.781533   -0.152117   -0.199769    0.094645    0.042419
Si    0.000000   -1.210131    0.000002   -0.000003   -0.601948   -0.000022
Si    0.000001    1.346946    0.000002   -0.000003   -0.601933   -0.000023
Mg   -2.182887    0.026215   -0.350804    0.000003   -0.230673   -0.000004
Mg    2.182887    0.026215    0.350806    0.000003   -0.230673   -0.000005
O    -0.292291   -0.138401   -1.172724   -0.000002    1.217838    0.000000
O     0.292289   -0.138401    1.172717    0.000010    1.217835    0.000060
10
* Frequency(24)  757.3602
O    -1.522076   -1.792290    0.147298   -0.199782    0.094639    0.042420
O    -1.522076    1.792290    0.147296    0.199764    0.094650   -0.042404
O     1.522077   -1.792289   -0.147298    0.199778    0.094644   -0.042404
O     1.522077    1.792289   -0.147296   -0.199769    0.094645    0.042419
Si   -0.000000   -1.278539   -0.000001   -0.000003   -0.601948   -0.000022
Si    0.000000    1.278539   -0.000000   -0.000003   -0.601933   -0.000023
Mg   -2.182887   -0.000000   -0.350804    0.000003   -0.230673   -0.000004
Mg    2.182887    0.000000    0.350806    0.000003   -0.230673   -0.000005
O    -0.292291   -0.000000   -1.172724   -0.000002    1.217838    0.000000
O     0.292290   -0.000000    1.172724    0.000010    1.217835    0.000060
