10
* (null), Energy   -1000.0000000
O    -1.522076   -1.792290    0.147298    0.021407   -0.370540   -0.608915
O    -1.522076    1.792290    0.147296    0.021406    0.370540   -0.608918
O     1.522077   -1.792289   -0.147298   -0.021407   -0.370541    0.608916
O     1.522077    1.792289   -0.147296   -0.021407    0.370540    0.608919
Si   -0.000000   -1.278539   -0.000001   -0.000000   -0.178347   -0.000000
Si    0.000000    1.278539   -0.000000   -0.000000    0.178348   -0.000000
Mg   -2.182887   -0.000000   -0.350804    0.238722   -0.000000    0.779464
Mg    2.182887    0.000000    0.350806   -0.238720   -0.000000   -0.779464
O    -0.292291   -0.000000   -1.172724    0.532941    0.000000    0.050374
O     0.292290   -0.000000    1.172724   -0.532942    0.000000   -0.050375
10
* Frequency(7)  214.5094
O    -1.519644   -1.834400    0.078098    0.021407   -0.370540   -0.608915
O    -1.519643    1.834400    0.078095    0.021406    0.370540   -0.608918
O     1.519644   -1.834399   -0.078098   -0.021407   -0.370541    0.608916
O     1.519644    1.834399   -0.078096   -0.021407    0.370540    0.608919
Si   -0.000000   -1.298808   -0.000001   -0.000000   -0.178347   -0.000000
Si    0.000000    1.298807   -0.000000   -0.000000    0.178348   -0.000000
Mg   -2.155758   -0.000000   -0.262222    0.238722   -0.000000    0.779464
Mg    2.155758    0.000000    0.262224   -0.238720   -0.000000   -0.779464
O    -0.231725   -0.000000   -1.166999    0.532941    0.000000    0.050374
O     0.231724   -0.000000    1.166999   -0.532942    0.000000   -0.050375
10
* Frequency(7)  214.5094
O    -1.517474   -1.871946    0.016397    0.021407   -0.370540   -0.608915
O    -1.517474    1.871946    0.016394    0.021406    0.370540   -0.608918
O     1.517475   -1.871945   -0.016397   -0.021407   -0.370541    0.608916
O     1.517475    1.871946   -0.016394   -0.021407    0.370540    0.608919
Si   -0.000000   -1.316879   -0.000001   -0.000000   -0.178347   -0.000000
Si    0.000000    1.316879   -0.000000   -0.000000    0.178348   -0.000000
Mg   -2.131568   -0.000000   -0.183239    0.238722   -0.000000    0.779464
Mg    2.131568    0.000000    0.183241   -0.238720   -0.000000   -0.779464
O    -0.177723   -0.000000   -1.161895    0.532941    0.000000    0.050374
O     0.177721   -0.000000    1.161894   -0.532942    0.000000   -0.050375
10
* Frequency(7)  214.5094
O    -1.515804   -1.900861   -0.031119    0.021407   -0.370540   -0.608915
O    -1.515804    1.900861   -0.031122    0.021406    0.370540   -0.608918
O     1.515804   -1.900860    0.031119   -0.021407   -0.370541    0.608916
O     1.515804    1.900861    0.031122   -0.021407    0.370540    0.608919
Si   -0.000000   -1.330796   -0.000001   -0.000000   -0.178347   -0.000000
Si    0.000000    1.330796   -0.000000   -0.000000    0.178348   -0.000000
Mg   -2.112940   -0.000000   -0.122415    0.238722   -0.000000    0.779464
Mg    2.112940    0.000000    0.122416   -0.238720   -0.000000   -0.779464
O    -0.136135   -0.000000   -1.157964    0.532941    0.000000    0.050374
O     0.136134   -0.000000    1.157963   -0.532942    0.000000   -0.050375
10
* Frequency(7)  214.5094
O    -1.514813   -1.918010   -0.059301    0.021407   -0.370540   -0.608915
O    -1.514813    1.918010   -0.059304    0.021406    0.370540   -0.608918
O     1.514813   -1.918009    0.059301   -0.021407   -0.370541    0.608916
O     1.514813    1.918010    0.059304   -0.021407    0.370540    0.608919
Si   -0.000000   -1.339051   -0.000001   -0.000000   -0.178347   -0.000000
Si    0.000000    1.339051   -0.000000   -0.000000    0.178348   -0.000000
Mg   -2.101891   -0.000000   -0.086340    0.238722   -0.000000    0.779464
Mg    2.101892    0.000000    0.086341   -0.238720   -0.000000   -0.779464
O    -0.111470   -0.000000   -1.155632    0.532941    0.000000    0.050374
O     0.111468   -0.000000    1.155632   -0.532942    0.000000   -0.050375
10
* Frequency(7)  214.5094
O    -1.514610   -1.921536   -0.065094    0.021407   -0.370540   -0.608915
O    -1.514609    1.921536   -0.065098    0.021406    0.370540   -0.608918
O     1.514610   -1.921535    0.065095   -0.021407   -0.370541    0.608916
O     1.514610    1.921535    0.065098   -0.021407    0.370540    0.608919
Si   -0.000000   -1.340748   -0.000001   -0.000000   -0.178347   -0.000000
Si    0.000000    1.340748   -0.000000   -0.000000    0.178348   -0.000000
Mg   -2.099620   -0.000000   -0.078923    0.238722   -0.000000    0.779464
Mg    2.099620    0.000000    0.078925   -0.238720   -0.000000   -0.779464
O    -0.106399   -0.000000   -1.155153    0.532941    0.000000    0.050374
O     0.106398   -0.000000    1.155152   -0.532942    0.000000   -0.050375
10
* Frequency(7)  214.5094
O    -1.515215   -1.911055   -0.047872    0.021407   -0.370540   -0.608915
O    -1.515215    1.911055   -0.047875    0.021406    0.370540   -0.608918
O     1.515215   -1.911055    0.047872   -0.021407   -0.370541    0.608916
O     1.515215    1.911055    0.047875   -0.021407    0.370540    0.608919
Si   -0.000000   -1.335703   -0.000001   -0.000000   -0.178347   -0.000000
Si    0.000000    1.335703   -0.000000   -0.000000    0.178348   -0.000000
Mg   -2.106372   -0.000000   -0.100970    0.238722   -0.000000    0.779464
Mg    2.106372    0.000000    0.100971   -0.238720   -0.000000   -0.779464
O    -0.121473   -0.000000   -1.156578    0.532941    0.000000    0.050374
O     0.121471   -0.000000    1.156577   -0.532942    0.000000   -0.050375
10
* Frequency(7)  214.5094
O    -1.516564   -1.887705   -0.009500    0.021407   -0.370540   -0.608915
O    -1.516564    1.887705   -0.009503    0.021406    0.370540   -0.608918
O     1.516564   -1.887704    0.009500   -0.021407   -0.370541    0.608916
O     1.516564    1.887705    0.009502   -0.021407    0.370540    0.608919
Si   -0.000000   -1.324464   -0.000001   -0.000000   -0.178347   -0.000000
Si    0.000000    1.324464   -0.000000   -0.000000    0.178348   -0.000000
Mg   -2.121415   -0.000000   -0.150090    0.238722   -0.000000    0.779464
Mg    2.121416    0.000000    0.150091   -0.238720   -0.000000   -0.779464
O    -0.155057   -0.000000   -1.159752    0.532941    0.000000    0.050374
O     0.155056   -0.000000    1.159752   -0.532942    0.000000   -0.050375
10
* Frequency(7)  214.5094
O    -1.518510   -1.854015    0.045864    0.021407   -0.370540   -0.608915
O    -1.518510    1.854015    0.045861    0.021406    0.370540   -0.608918
O     1.518511   -1.854014   -0.045864   -0.021407   -0.370541    0.608916
O     1.518511    1.854014   -0.045861   -0.021407    0.370540    0.608919
Si   -0.000000   -1.308249   -0.000001   -0.000000   -0.178347   -0.000000
Si    0.000000    1.308249   -0.000000   -0.000000    0.178348   -0.000000
Mg   -2.143120   -0.000000   -0.220960    0.238722   -0.000000    0.779464
Mg    2.143121    0.000000    0.220961   -0.238720   -0.000000   -0.779464
O    -0.203513   -0.000000   -1.164332    0.532941    0.000000    0.050374
O     0.203512   -0.000000    1.164332   -0.532942    0.000000   -0.050375
10
* Frequency(7)  214.5094
O    -1.520843   -1.813636    0.112219    0.021407   -0.370540   -0.608915
O    -1.520843    1.813636    0.112217    0.021406    0.370540   -0.608918
O     1.520843   -1.813635   -0.112220   -0.021407   -0.370541    0.608916
O     1.520843    1.813635   -0.112217   -0.021407    0.370540    0.608919
Si   -0.000000   -1.288814   -0.000001   -0.000000   -0.178347   -0.000000
Si    0.000000    1.288813   -0.000000   -0.000000    0.178348   -0.000000
Mg   -2.169135   -0.000000   -0.305901    0.238722   -0.000000    0.779464
Mg    2.169135    0.000000    0.305902   -0.238720   -0.000000   -0.779464
O    -0.261589   -0.000000   -1.169822    0.532941    0.000000    0.050374
O     0.261588   -0.000000    1.169822   -0.532942    0.000000   -0.050375
10
* Frequency(7)  214.5094
O    -1.523310   -1.770944    0.182376    0.021407   -0.370540   -0.608915
O    -1.523309    1.770944    0.182374    0.021406    0.370540   -0.608918
O     1.523310   -1.770943   -0.182377   -0.021407   -0.370541    0.608916
O     1.523310    1.770943   -0.182375   -0.021407    0.370540    0.608919
Si   -0.000000   -1.268265   -0.000001   -0.000000   -0.178347   -0.000000
Si    0.000000    1.268265   -0.000000   -0.000000    0.178348   -0.000000
Mg   -2.196639   -0.000000   -0.395708    0.238722   -0.000000    0.779464
Mg    2.196639    0.000000    0.395709   -0.238720   -0.000000   -0.779464
O    -0.322993   -0.000000   -1.175626    0.532941    0.000000    0.050374
O     0.322992   -0.000000    1.175626   -0.532942    0.000000   -0.050375
10
* Frequency(7)  214.5094
O    -1.525642   -1.730565    0.248732    0.021407   -0.370540   -0.608915
O    -1.525642    1.730565    0.248730    0.021406    0.370540   -0.608918
O     1.525642   -1.730563   -0.248732   -0.021407   -0.370541    0.608916
O     1.525643    1.730564   -0.248731   -0.021407    0.370540    0.608919
Si   -0.000000   -1.248830   -0.000000   -0.000000   -0.178347   -0.000000
Si    0.000000    1.248830   -0.000000   -0.000000    0.178348   -0.000000
Mg   -2.222654    0.000000   -0.480649    0.238722   -0.000000    0.779464
Mg    2.222654    0.000000    0.480650   -0.238720   -0.000000   -0.779464
O    -0.381069   -0.000000   -1.181115    0.532941    0.000000    0.050374
O     0.381068   -0.000000    1.181115   -0.532942    0.000000   -0.050375
10
* Frequency(7)  214.5094
O    -1.527589   -1.696875    0.304096    0.021407   -0.370540   -0.608915
O    -1.527588    1.696874    0.304094    0.021406    0.370540   -0.608918
O     1.527589   -1.696873   -0.304096   -0.021407   -0.370541    0.608916
O     1.527589    1.696874   -0.304095   -0.021407    0.370540    0.608919
Si   -0.000000   -1.232614   -0.000000   -0.000000   -0.178347   -0.000000
Si    0.000000    1.232614   -0.000000   -0.000000    0.178348   -0.000000
Mg   -2.244359    0.000000   -0.551519    0.238722   -0.000000    0.779464
Mg    2.244358    0.000000    0.551520   -0.238720   -0.000000   -0.779464
O    -0.429525   -0.000000   -1.185695    0.532941    0.000000    0.050374
O     0.429524   -0.000000    1.185696   -0.532942    0.000000   -0.050375
10
* Frequency(7)  214.5094
O    -1.528938   -1.673524    0.342468    0.021407   -0.370540   -0.608915
O    -1.528937    1.673524    0.342467    0.021406    0.370540   -0.608918
O     1.528938   -1.673523   -0.342468   -0.021407   -0.370541    0.608916
O     1.528938    1.673524   -0.342467   -0.021407    0.370540    0.608919
Si   -0.000000   -1.221375   -0.000000   -0.000000   -0.178347   -0.000000
Si    0.000000    1.221375   -0.000000   -0.000000    0.178348   -0.000000
Mg   -2.259403    0.000000   -0.600639    0.238722   -0.000000    0.779464
Mg    2.259402    0.000000    0.600640   -0.238720   -0.000000   -0.779464
O    -0.463110   -0.000000   -1.188870    0.532941    0.000000    0.050374
O     0.463109   -0.000000    1.188870   -0.532942    0.000000   -0.050375
10
* Frequency(7)  214.5094
O    -1.529543   -1.663044    0.359690    0.021407   -0.370540   -0.608915
O    -1.529543    1.663044    0.359689    0.021406    0.370540   -0.608918
O     1.529543   -1.663042   -0.359691   -0.021407   -0.370541    0.608916
O     1.529544    1.663043   -0.359690   -0.021407    0.370540    0.608919
Si   -0.000000   -1.216331   -0.000000   -0.000000   -0.178347   -0.000000
Si    0.000000    1.216331   -0.000000   -0.000000    0.178348   -0.000000
Mg   -2.266155    0.000000   -0.622685    0.238722   -0.000000    0.779464
Mg    2.266154    0.000000    0.622686   -0.238720   -0.000000   -0.779464
O    -0.478183   -0.000000   -1.190294    0.532941    0.000000    0.050374
O     0.478183   -0.000000    1.190295   -0.532942    0.000000   -0.050375
10
* Frequency(7)  214.5094
O    -1.529339   -1.666569    0.353897    0.021407   -0.370540   -0.608915
O    -1.529339    1.666569    0.353896    0.021406    0.370540   -0.608918
O     1.529340   -1.666568   -0.353897   -0.021407   -0.370541    0.608916
O     1.529340    1.666569   -0.353896   -0.021407    0.370540    0.608919
Si   -0.000000   -1.218028   -0.000000   -0.000000   -0.178347   -0.000000
Si    0.000000    1.218028   -0.000000   -0.000000    0.178348   -0.000000
Mg   -2.263883    0.000000   -0.615269    0.238722   -0.000000    0.779464
Mg    2.263883    0.000000    0.615270   -0.238720   -0.000000   -0.779464
O    -0.473113   -0.000000   -1.189815    0.532941    0.000000    0.050374
O     0.473112   -0.000000    1.189816   -0.532942    0.000000   -0.050375
10
* Frequency(7)  214.5094
O    -1.528349   -1.683719    0.325715    0.021407   -0.370540   -0.608915
O    -1.528348    1.683718    0.325714    0.021406    0.370540   -0.608918
O     1.528349   -1.683717   -0.325716   -0.021407   -0.370541    0.608916
O     1.528349    1.683718   -0.325714   -0.021407    0.370540    0.608919
Si   -0.000000   -1.226282   -0.000000   -0.000000   -0.178347   -0.000000
Si    0.000000    1.226282   -0.000000   -0.000000    0.178348   -0.000000
Mg   -2.252835    0.000000   -0.579194    0.238722   -0.000000    0.779464
Mg    2.252834    0.000000    0.579195   -0.238720   -0.000000   -0.779464
O    -0.448447   -0.000000   -1.187484    0.532941    0.000000    0.050374
O     0.448446   -0.000000    1.187484   -0.532942    0.000000   -0.050375
10
* Frequency(7)  214.5094
O    -1.526678   -1.712633    0.278199    0.021407   -0.370540   -0.608915
O    -1.526678    1.712633    0.278198    0.021406    0.370540   -0.608918
O     1.526678   -1.712632   -0.278199   -0.021407   -0.370541    0.608916
O     1.526679    1.712633   -0.278198   -0.021407    0.370540    0.608919
Si   -0.000000   -1.240199   -0.000000   -0.000000   -0.178347   -0.000000
Si    0.000000    1.240199   -0.000000   -0.000000    0.178348   -0.000000
Mg   -2.234206    0.000000   -0.518369    0.238722   -0.000000    0.779464
Mg    2.234206    0.000000    0.518370   -0.238720   -0.000000   -0.779464
O    -0.406860   -0.000000   -1.183553    0.532941    0.000000    0.050374
O     0.406859   -0.000000    1.183553   -0.532942    0.000000   -0.050375
10
* Frequency(7)  214.5094
O    -1.524509   -1.750180    0.216498    0.021407   -0.370540   -0.608915
O    -1.524509    1.750180    0.216496    0.021406    0.370540   -0.608918
O     1.524509   -1.750179   -0.216498   -0.021407   -0.370541    0.608916
O     1.524509    1.750179   -0.216497   -0.021407    0.370540    0.608919
Si   -0.000000   -1.258271   -0.000000   -0.000000   -0.178347   -0.000000
Si    0.000000    1.258271   -0.000000   -0.000000    0.178348   -0.000000
Mg   -2.210017   -0.000000   -0.439386    0.238722   -0.000000    0.779464
Mg    2.210016    0.000000    0.439388   -0.238720   -0.000000   -0.779464
O    -0.352857   -0.000000   -1.178448    0.532941    0.000000    0.050374
O     0.352856   -0.000000    1.178449   -0.532942    0.000000   -0.050375
10
* Frequency(7)  214.5094
O    -1.522076   -1.792290    0.147298    0.021407   -0.370540   -0.608915
O    -1.522076    1.792290    0.147296    0.021406    0.370540   -0.608918
O     1.522077   -1.792289   -0.147298   -0.021407   -0.370541    0.608916
O     1.522077    1.792289   -0.147296   -0.021407    0.370540    0.608919
Si   -0.000000   -1.278539   -0.000001   -0.000000   -0.178347   -0.000000
Si    0.000000    1.278539   -0.000000   -0.000000    0.178348   -0.000000
Mg   -2.182887   -0.000000   -0.350804    0.238722   -0.000000    0.779464
Mg    2.182887    0.000000    0.350806   -0.238720   -0.000000   -0.779464
O    -0.292291   -0.000000   -1.172724    0.532941    0.000000    0.050374
O     0.292290   -0.000000    1.172724   -0.532942    0.000000   -0.050375
