10
* (null), Energy   -1000.0000000
O    -1.522076   -1.792290    0.147298    0.123181   -0.412651    0.403494
O    -1.522076    1.792290    0.147296    0.123177    0.412650    0.403492
O     1.522077   -1.792289   -0.147298   -0.123181   -0.412654   -0.403492
O     1.522077    1.792289   -0.147296   -0.123178    0.412652   -0.403491
Si   -0.000000   -1.278539   -0.000001    0.000000   -0.464469   -0.000001
Si    0.000000    1.278539   -0.000000   -0.000000    0.464473    0.000000
Mg   -2.182887   -0.000000   -0.350804    0.986788   -0.000002   -0.259092
Mg    2.182887    0.000000    0.350806   -0.986791   -0.000003    0.259091
O    -0.292291   -0.000000   -1.172724   -0.050264    0.000002    0.210563
O     0.292290   -0.000000    1.172724    0.050267    0.000002   -0.210564
10
* Frequency(10)  323.1644
O    -1.508077   -1.839185    0.193153    0.123181   -0.412651    0.403494
O    -1.508077    1.839185    0.193151    0.123177    0.412650    0.403492
O     1.508078   -1.839185   -0.193153   -0.123181   -0.412654   -0.403492
O     1.508078    1.839185   -0.193151   -0.123178    0.412652   -0.403491
Si    0.000000   -1.331324   -0.000001    0.000000   -0.464469   -0.000001
Si    0.000000    1.331324   -0.000000   -0.000000    0.464473    0.000000
Mg   -2.070744   -0.000000   -0.380249    0.986788   -0.000002   -0.259092
Mg    2.070743   -0.000000    0.380250   -0.986791   -0.000003    0.259091
O    -0.298003   -0.000000   -1.148794   -0.050264    0.000002    0.210563
O     0.298003   -0.000000    1.148794    0.050267    0.000002   -0.210564
10
* Frequency(10)  323.1644
O    -1.495596   -1.880999    0.234039    0.123181   -0.412651    0.403494
O    -1.495596    1.880999    0.234036    0.123177    0.412650    0.403492
O     1.495596   -1.880999   -0.234039   -0.123181   -0.412654   -0.403492
O     1.495596    1.880999   -0.234036   -0.123178    0.412652   -0.403491
Si    0.000000   -1.378388   -0.000001    0.000000   -0.464469   -0.000001
Si    0.000000    1.378389   -0.000000   -0.000000    0.464473    0.000000
Mg   -1.970753   -0.000000   -0.406502    0.986788   -0.000002   -0.259092
Mg    1.970752   -0.000000    0.406504   -0.986791   -0.000003    0.259091
O    -0.303097    0.000000   -1.127458   -0.050264    0.000002    0.210563
O     0.303096    0.000000    1.127458    0.050267    0.000002   -0.210564
10
* Frequency(10)  323.1644
O    -1.485983   -1.913200    0.265525    0.123181   -0.412651    0.403494
O    -1.485984    1.913200    0.265522    0.123177    0.412650    0.403492
O     1.485984   -1.913200   -0.265525   -0.123181   -0.412654   -0.403492
O     1.485984    1.913200   -0.265522   -0.123178    0.412652   -0.403491
Si    0.000000   -1.414632   -0.000001    0.000000   -0.464469   -0.000001
Si    0.000000    1.414634   -0.000000   -0.000000    0.464473    0.000000
Mg   -1.893750   -0.000001   -0.426720    0.986788   -0.000002   -0.259092
Mg    1.893749   -0.000001    0.426721   -0.986791   -0.000003    0.259091
O    -0.307019    0.000000   -1.111027   -0.050264    0.000002    0.210563
O     0.307019    0.000000    1.111027    0.050267    0.000002   -0.210564
10
* Frequency(10)  323.1644
O    -1.480282   -1.932298    0.284199    0.123181   -0.412651    0.403494
O    -1.480283    1.932298    0.284197    0.123177    0.412650    0.403492
O     1.480283   -1.932298   -0.284199   -0.123181   -0.412654   -0.403492
O     1.480284    1.932298   -0.284197   -0.123178    0.412652   -0.403491
Si    0.000000   -1.436129   -0.000001    0.000000   -0.464469   -0.000001
Si    0.000000    1.436130   -0.000000   -0.000000    0.464473    0.000000
Mg   -1.848080   -0.000001   -0.438712    0.986788   -0.000002   -0.259092
Mg    1.848079   -0.000001    0.438713   -0.986791   -0.000003    0.259091
O    -0.309345    0.000000   -1.101282   -0.050264    0.000002    0.210563
O     0.309345    0.000000    1.101281    0.050267    0.000002   -0.210564
10
* Frequency(10)  323.1644
O    -1.479110   -1.936224    0.288038    0.123181   -0.412651    0.403494
O    -1.479111    1.936224    0.288036    0.123177    0.412650    0.403492
O     1.479111   -1.936224   -0.288038   -0.123181   -0.412654   -0.403492
O     1.479112    1.936224   -0.288036   -0.123178    0.412652   -0.403491
Si    0.000000   -1.440548   -0.000001    0.000000   -0.464469   -0.000001
Si    0.000000    1.440549   -0.000000   -0.000000    0.464473    0.000000
Mg   -1.838691   -0.000001   -0.441177    0.986788   -0.000002   -0.259092
Mg    1.838690   -0.000001    0.441178   -0.986791   -0.000003    0.259091
O    -0.309823    0.000000   -1.099278   -0.050264    0.000002    0.210563
O     0.309824    0.000000    1.099278    0.050267    0.000002   -0.210564
10
* Frequency(10)  323.1644
O    -1.482594   -1.924553    0.276626    0.123181   -0.412651    0.403494
O    -1.482595    1.924553    0.276623    0.123177    0.412650    0.403492
O     1.482595   -1.924553   -0.276626   -0.123181   -0.412654   -0.403492
O     1.482596    1.924553   -0.276623   -0.123178    0.412652   -0.403491
Si    0.000000   -1.427411   -0.000001    0.000000   -0.464469   -0.000001
Si    0.000000    1.427412   -0.000000   -0.000000    0.464473    0.000000
Mg   -1.866601   -0.000001   -0.433849    0.986788   -0.000002   -0.259092
Mg    1.866600   -0.000001    0.433850   -0.986791   -0.000003    0.259091
O    -0.308402    0.000000   -1.105234   -0.050264    0.000002    0.210563
O     0.308402    0.000000    1.105233    0.050267    0.000002   -0.210564
10
* Frequency(10)  323.1644
O    -1.490357   -1.898549    0.251199    0.123181   -0.412651    0.403494
O    -1.490357    1.898548    0.251196    0.123177    0.412650    0.403492
O     1.490357   -1.898549   -0.251199   -0.123181   -0.412654   -0.403492
O     1.490358    1.898549   -0.251196   -0.123178    0.412652   -0.403491
Si    0.000000   -1.398142   -0.000001    0.000000   -0.464469   -0.000001
Si    0.000000    1.398143   -0.000000   -0.000000    0.464473    0.000000
Mg   -1.928786   -0.000001   -0.417521    0.986788   -0.000002   -0.259092
Mg    1.928785   -0.000001    0.417522   -0.986791   -0.000003    0.259091
O    -0.305234    0.000000   -1.118503   -0.050264    0.000002    0.210563
O     0.305234    0.000000    1.118503    0.050267    0.000002   -0.210564
10
* Frequency(10)  323.1644
O    -1.501557   -1.861030    0.214513    0.123181   -0.412651    0.403494
O    -1.501557    1.861030    0.214510    0.123177    0.412650    0.403492
O     1.501557   -1.861029   -0.214512   -0.123181   -0.412654   -0.403492
O     1.501557    1.861029   -0.214510   -0.123178    0.412652   -0.403491
Si    0.000000   -1.355911   -0.000001    0.000000   -0.464469   -0.000001
Si    0.000000    1.355912   -0.000000   -0.000000    0.464473    0.000000
Mg   -2.018506   -0.000000   -0.393964    0.986788   -0.000002   -0.259092
Mg    2.018506   -0.000000    0.393965   -0.986791   -0.000003    0.259091
O    -0.300664   -0.000000   -1.137648   -0.050264    0.000002    0.210563
O     0.300664    0.000000    1.137648    0.050267    0.000002   -0.210564
10
* Frequency(10)  323.1644
O    -1.514980   -1.816062    0.170542    0.123181   -0.412651    0.403494
O    -1.514980    1.816062    0.170540    0.123177    0.412650    0.403492
O     1.514980   -1.816061   -0.170542   -0.123181   -0.412654   -0.403492
O     1.514981    1.816061   -0.170540   -0.123178    0.412652   -0.403491
Si   -0.000000   -1.305296   -0.000001    0.000000   -0.464469   -0.000001
Si    0.000000    1.305297   -0.000000   -0.000000    0.464473    0.000000
Mg   -2.126040   -0.000000   -0.365730    0.986788   -0.000002   -0.259092
Mg    2.126040   -0.000000    0.365731   -0.986791   -0.000003    0.259091
O    -0.295187   -0.000000   -1.160594   -0.050264    0.000002    0.210563
O     0.295186   -0.000000    1.160593    0.050267    0.000002   -0.210564
10
* Frequency(10)  323.1644
O    -1.529173   -1.768518    0.124053    0.123181   -0.412651    0.403494
O    -1.529172    1.768518    0.124051    0.123177    0.412650    0.403492
O     1.529173   -1.768516   -0.124054   -0.123181   -0.412654   -0.403492
O     1.529173    1.768517   -0.124052   -0.123178    0.412652   -0.403491
Si   -0.000000   -1.251782   -0.000000    0.000000   -0.464469   -0.000001
Si    0.000000    1.251782   -0.000000   -0.000000    0.464473    0.000000
Mg   -2.239734    0.000000   -0.335878    0.986788   -0.000002   -0.259092
Mg    2.239734    0.000000    0.335880   -0.986791   -0.000003    0.259091
O    -0.289396   -0.000000   -1.184854   -0.050264    0.000002    0.210563
O     0.289394   -0.000000    1.184854    0.050267    0.000002   -0.210564
10
* Frequency(10)  323.1644
O    -1.542596   -1.723550    0.080083    0.123181   -0.412651    0.403494
O    -1.542595    1.723550    0.080081    0.123177    0.412650    0.403492
O     1.542596   -1.723548   -0.080084   -0.123181   -0.412654   -0.403492
O     1.542596    1.723549   -0.080082   -0.123178    0.412652   -0.403491
Si   -0.000000   -1.201167   -0.000000    0.000000   -0.464469   -0.000001
Si    0.000000    1.201167   -0.000000   -0.000000    0.464473    0.000000
Mg   -2.347268    0.000000   -0.307644    0.986788   -0.000002   -0.259092
Mg    2.347268    0.000001    0.307646   -0.986791   -0.000003    0.259091
O    -0.283918   -0.000001   -1.207800   -0.050264    0.000002    0.210563
O     0.283916   -0.000001    1.207800    0.050267    0.000002   -0.210564
10
* Frequency(10)  323.1644
O    -1.553796   -1.686031    0.043397    0.123181   -0.412651    0.403494
O    -1.553794    1.686031    0.043395    0.123177    0.412650    0.403492
O     1.553796   -1.686029   -0.043398   -0.123181   -0.412654   -0.403492
O     1.553795    1.686030   -0.043396   -0.123178    0.412652   -0.403491
Si   -0.000000   -1.158937   -0.000000    0.000000   -0.464469   -0.000001
Si    0.000000    1.158936   -0.000000   -0.000000    0.464473    0.000000
Mg   -2.436988    0.000001   -0.284087    0.986788   -0.000002   -0.259092
Mg    2.436989    0.000001    0.284089   -0.986791   -0.000003    0.259091
O    -0.279348   -0.000001   -1.226945   -0.050264    0.000002    0.210563
O     0.279346   -0.000001    1.226945    0.050267    0.000002   -0.210564
10
* Frequency(10)  323.1644
O    -1.561558   -1.660026    0.017970    0.123181   -0.412651    0.403494
O    -1.561557    1.660027    0.017968    0.123177    0.412650    0.403492
O     1.561558   -1.660024   -0.017971   -0.123181   -0.412654   -0.403492
O     1.561558    1.660026   -0.017969   -0.123178    0.412652   -0.403491
Si   -0.000000   -1.129668   -0.000000    0.000000   -0.464469   -0.000001
Si    0.000000    1.129666   -0.000000   -0.000000    0.464473    0.000000
Mg   -2.499173    0.000001   -0.267760    0.986788   -0.000002   -0.259092
Mg    2.499174    0.000001    0.267762   -0.986791   -0.000003    0.259091
O    -0.276181   -0.000001   -1.240214   -0.050264    0.000002    0.210563
O     0.276178   -0.000001    1.240214    0.050267    0.000002   -0.210564
10
* Frequency(10)  323.1644
O    -1.565043   -1.648355    0.006557    0.123181   -0.412651    0.403494
O    -1.565041    1.648355    0.006556    0.123177    0.412650    0.403492
O     1.565043   -1.648353   -0.006558   -0.123181   -0.412654   -0.403492
O     1.565042    1.648354   -0.006557   -0.123178    0.412652   -0.403491
Si   -0.000000   -1.116531   -0.000000    0.000000   -0.464469   -0.000001
Si    0.000000    1.116529   -0.000000   -0.000000    0.464473    0.000000
Mg   -2.527083    0.000001   -0.260432    0.986788   -0.000002   -0.259092
Mg    2.527084    0.000001    0.260434   -0.986791   -0.000003    0.259091
O    -0.274759   -0.000001   -1.246169   -0.050264    0.000002    0.210563
O     0.274757   -0.000001    1.246169    0.050267    0.000002   -0.210564
10
* Frequency(10)  323.1644
O    -1.563871   -1.652281    0.010396    0.123181   -0.412651    0.403494
O    -1.563869    1.652282    0.010395    0.123177    0.412650    0.403492
O     1.563871   -1.652279   -0.010397   -0.123181   -0.412654   -0.403492
O     1.563870    1.652281   -0.010396   -0.123178    0.412652   -0.403491
Si   -0.000000   -1.120950   -0.000000    0.000000   -0.464469   -0.000001
Si    0.000000    1.120948   -0.000000   -0.000000    0.464473    0.000000
Mg   -2.517695    0.000001   -0.262897    0.986788   -0.000002   -0.259092
Mg    2.517695    0.000001    0.262899   -0.986791   -0.000003    0.259091
O    -0.275237   -0.000001   -1.244166   -0.050264    0.000002    0.210563
O     0.275235   -0.000001    1.244166    0.050267    0.000002   -0.210564
10
* Frequency(10)  323.1644
O    -1.558169   -1.671380    0.029071    0.123181   -0.412651    0.403494
O    -1.558168    1.671380    0.029069    0.123177    0.412650    0.403492
O     1.558169   -1.671378   -0.029072   -0.123181   -0.412654   -0.403492
O     1.558169    1.671379   -0.029070   -0.123178    0.412652   -0.403491
Si   -0.000000   -1.142446   -0.000000    0.000000   -0.464469   -0.000001
Si    0.000000    1.142445   -0.000000   -0.000000    0.464473    0.000000
Mg   -2.472024    0.000001   -0.274888    0.986788   -0.000002   -0.259092
Mg    2.472025    0.000001    0.274890   -0.986791   -0.000003    0.259091
O    -0.277563   -0.000001   -1.234421   -0.050264    0.000002    0.210563
O     0.277561   -0.000001    1.234421    0.050267    0.000002   -0.210564
10
* Frequency(10)  323.1644
O    -1.548557   -1.703580    0.060557    0.123181   -0.412651    0.403494
O    -1.548556    1.703580    0.060555    0.123177    0.412650    0.403492
O     1.548557   -1.703579   -0.060558   -0.123181   -0.412654   -0.403492
O     1.548557    1.703580   -0.060556   -0.123178    0.412652   -0.403491
Si   -0.000000   -1.178690   -0.000000    0.000000   -0.464469   -0.000001
Si    0.000000    1.178689   -0.000000   -0.000000    0.464473    0.000000
Mg   -2.395021    0.000000   -0.295106    0.986788   -0.000002   -0.259092
Mg    2.395022    0.000001    0.295108   -0.986791   -0.000003    0.259091
O    -0.281486   -0.000001   -1.217990   -0.050264    0.000002    0.210563
O     0.281484   -0.000001    1.217990    0.050267    0.000002   -0.210564
10
* Frequency(10)  323.1644
O    -1.536075   -1.745394    0.101443    0.123181   -0.412651    0.403494
O    -1.536074    1.745394    0.101441    0.123177    0.412650    0.403492
O     1.536075   -1.745393   -0.101443   -0.123181   -0.412654   -0.403492
O     1.536075    1.745394   -0.101441   -0.123178    0.412652   -0.403491
Si   -0.000000   -1.225755   -0.000000    0.000000   -0.464469   -0.000001
Si    0.000000    1.225754   -0.000000   -0.000000    0.464473    0.000000
Mg   -2.295030    0.000000   -0.321360    0.986788   -0.000002   -0.259092
Mg    2.295031    0.000000    0.321361   -0.986791   -0.000003    0.259091
O    -0.286579   -0.000000   -1.196653   -0.050264    0.000002    0.210563
O     0.286577   -0.000000    1.196653    0.050267    0.000002   -0.210564
10
* Frequency(10)  323.1644
O    -1.522076   -1.792290    0.147298    0.123181   -0.412651    0.403494
O    -1.522076    1.792290    0.147296    0.123177    0.412650    0.403492
O     1.522077   -1.792289   -0.147298   -0.123181   -0.412654   -0.403492
O     1.522077    1.792289   -0.147296   -0.123178    0.412652   -0.403491
Si   -0.000000   -1.278539   -0.000001    0.000000   -0.464469   -0.000001
Si    0.000000    1.278539   -0.000000   -0.000000    0.464473    0.000000
Mg   -2.182887   -0.000000   -0.350804    0.986788   -0.000002   -0.259092
Mg    2.182887    0.000000    0.350806   -0.986791   -0.000003    0.259091
O    -0.292291   -0.000000   -1.172724   -0.050264    0.000002    0.210563
O     0.292290   -0.000000    1.172724    0.050267    0.000002   -0.210564
